# vtk DataFile Version 3.0
 Bridge                                                                         
  
ASCII
DATASET UNSTRUCTURED_GRID
 POINTS        4087 double
   200.000000000000       -10.0000000000000       0.000000000000000E+000
   200.000000000000        10.0000000000000       0.000000000000000E+000
   150.000000000000        10.0000000000000       0.000000000000000E+000
   150.000000000000       -10.0000000000000       0.000000000000000E+000
   100.000000000000        10.0000000000000       0.000000000000000E+000
   100.000000000000       -10.0000000000000       0.000000000000000E+000
   50.0000000000000        10.0000000000000       0.000000000000000E+000
   50.0000000000000       -10.0000000000000       0.000000000000000E+000
  0.000000000000000E+000   10.0000000000000       0.000000000000000E+000
  0.000000000000000E+000  -10.0000000000000       0.000000000000000E+000
  -50.0000000000000        10.0000000000000       0.000000000000000E+000
  -50.0000000000000       -10.0000000000000       0.000000000000000E+000
  -100.000000000000        10.0000000000000       0.000000000000000E+000
  -100.000000000000       -10.0000000000000       0.000000000000000E+000
  -150.000000000000        10.0000000000000       0.000000000000000E+000
  -150.000000000000       -10.0000000000000       0.000000000000000E+000
  -200.000000000000        10.0000000000000       0.000000000000000E+000
  -200.000000000000       -10.0000000000000       0.000000000000000E+000
  -250.000000000000        10.0000000000000       0.000000000000000E+000
  -250.000000000000       -10.0000000000000       0.000000000000000E+000
   250.000000000000       -10.0000000000000       0.000000000000000E+000
   250.000000000000        10.0000000000000       0.000000000000000E+000
   200.000000000000       -5.00000000000000       0.000000000000000E+000
   200.000000000000       0.000000000000000E+000  0.000000000000000E+000
   200.000000000000        5.00000000000000       0.000000000000000E+000
   195.000000000000        10.0000000000000       0.000000000000000E+000
   190.000000000000        10.0000000000000       0.000000000000000E+000
   185.000000000000        10.0000000000000       0.000000000000000E+000
   180.000000000000        10.0000000000000       0.000000000000000E+000
   175.000000000000        10.0000000000000       0.000000000000000E+000
   170.000000000000        10.0000000000000       0.000000000000000E+000
   165.000000000000        10.0000000000000       0.000000000000000E+000
   160.000000000000        10.0000000000000       0.000000000000000E+000
   155.000000000000        10.0000000000000       0.000000000000000E+000
   150.000000000000        5.00000000000000       0.000000000000000E+000
   150.000000000000       0.000000000000000E+000  0.000000000000000E+000
   150.000000000000       -5.00000000000000       0.000000000000000E+000
   155.000000000000       -10.0000000000000       0.000000000000000E+000
   160.000000000000       -10.0000000000000       0.000000000000000E+000
   165.000000000000       -10.0000000000000       0.000000000000000E+000
   170.000000000000       -10.0000000000000       0.000000000000000E+000
   175.000000000000       -10.0000000000000       0.000000000000000E+000
   180.000000000000       -10.0000000000000       0.000000000000000E+000
   185.000000000000       -10.0000000000000       0.000000000000000E+000
   190.000000000000       -10.0000000000000       0.000000000000000E+000
   195.000000000000       -10.0000000000000       0.000000000000000E+000
   145.000000000000        10.0000000000000       0.000000000000000E+000
   140.000000000000        10.0000000000000       0.000000000000000E+000
   135.000000000000        10.0000000000000       0.000000000000000E+000
   130.000000000000        10.0000000000000       0.000000000000000E+000
   125.000000000000        10.0000000000000       0.000000000000000E+000
   120.000000000000        10.0000000000000       0.000000000000000E+000
   115.000000000000        10.0000000000000       0.000000000000000E+000
   110.000000000000        10.0000000000000       0.000000000000000E+000
   105.000000000000        10.0000000000000       0.000000000000000E+000
   100.000000000000        5.00000000000000       0.000000000000000E+000
   100.000000000000       0.000000000000000E+000  0.000000000000000E+000
   100.000000000000       -5.00000000000000       0.000000000000000E+000
   105.000000000000       -10.0000000000000       0.000000000000000E+000
   110.000000000000       -10.0000000000000       0.000000000000000E+000
   115.000000000000       -10.0000000000000       0.000000000000000E+000
   120.000000000000       -10.0000000000000       0.000000000000000E+000
   125.000000000000       -10.0000000000000       0.000000000000000E+000
   130.000000000000       -10.0000000000000       0.000000000000000E+000
   135.000000000000       -10.0000000000000       0.000000000000000E+000
   140.000000000000       -10.0000000000000       0.000000000000000E+000
   145.000000000000       -10.0000000000000       0.000000000000000E+000
   95.0000000000000        10.0000000000000       0.000000000000000E+000
   90.0000000000000        10.0000000000000       0.000000000000000E+000
   85.0000000000000        10.0000000000000       0.000000000000000E+000
   80.0000000000000        10.0000000000000       0.000000000000000E+000
   75.0000000000000        10.0000000000000       0.000000000000000E+000
   70.0000000000000        10.0000000000000       0.000000000000000E+000
   65.0000000000000        10.0000000000000       0.000000000000000E+000
   60.0000000000000        10.0000000000000       0.000000000000000E+000
   55.0000000000000        10.0000000000000       0.000000000000000E+000
   50.0000000000000        5.00000000000000       0.000000000000000E+000
   50.0000000000000       0.000000000000000E+000  0.000000000000000E+000
   50.0000000000000       -5.00000000000000       0.000000000000000E+000
   55.0000000000000       -10.0000000000000       0.000000000000000E+000
   60.0000000000000       -10.0000000000000       0.000000000000000E+000
   65.0000000000000       -10.0000000000000       0.000000000000000E+000
   70.0000000000000       -10.0000000000000       0.000000000000000E+000
   75.0000000000000       -10.0000000000000       0.000000000000000E+000
   80.0000000000000       -10.0000000000000       0.000000000000000E+000
   85.0000000000000       -10.0000000000000       0.000000000000000E+000
   90.0000000000000       -10.0000000000000       0.000000000000000E+000
   95.0000000000000       -10.0000000000000       0.000000000000000E+000
   45.0000000000000        10.0000000000000       0.000000000000000E+000
   40.0000000000000        10.0000000000000       0.000000000000000E+000
   35.0000000000000        10.0000000000000       0.000000000000000E+000
   30.0000000000000        10.0000000000000       0.000000000000000E+000
   25.0000000000000        10.0000000000000       0.000000000000000E+000
   20.0000000000000        10.0000000000000       0.000000000000000E+000
   15.0000000000000        10.0000000000000       0.000000000000000E+000
   10.0000000000000        10.0000000000000       0.000000000000000E+000
   5.00000000000000        10.0000000000000       0.000000000000000E+000
  0.000000000000000E+000   5.00000000000000       0.000000000000000E+000
  0.000000000000000E+000  0.000000000000000E+000  0.000000000000000E+000
  0.000000000000000E+000  -5.00000000000000       0.000000000000000E+000
   5.00000000000000       -10.0000000000000       0.000000000000000E+000
   10.0000000000000       -10.0000000000000       0.000000000000000E+000
   15.0000000000000       -10.0000000000000       0.000000000000000E+000
   20.0000000000000       -10.0000000000000       0.000000000000000E+000
   25.0000000000000       -10.0000000000000       0.000000000000000E+000
   30.0000000000000       -10.0000000000000       0.000000000000000E+000
   35.0000000000000       -10.0000000000000       0.000000000000000E+000
   40.0000000000000       -10.0000000000000       0.000000000000000E+000
   45.0000000000000       -10.0000000000000       0.000000000000000E+000
  -5.00000000000000        10.0000000000000       0.000000000000000E+000
  -10.0000000000000        10.0000000000000       0.000000000000000E+000
  -15.0000000000000        10.0000000000000       0.000000000000000E+000
  -20.0000000000000        10.0000000000000       0.000000000000000E+000
  -25.0000000000000        10.0000000000000       0.000000000000000E+000
  -30.0000000000000        10.0000000000000       0.000000000000000E+000
  -35.0000000000000        10.0000000000000       0.000000000000000E+000
  -40.0000000000000        10.0000000000000       0.000000000000000E+000
  -45.0000000000000        10.0000000000000       0.000000000000000E+000
  -50.0000000000000        5.00000000000000       0.000000000000000E+000
  -50.0000000000000       0.000000000000000E+000  0.000000000000000E+000
  -50.0000000000000       -5.00000000000000       0.000000000000000E+000
  -45.0000000000000       -10.0000000000000       0.000000000000000E+000
  -40.0000000000000       -10.0000000000000       0.000000000000000E+000
  -35.0000000000000       -10.0000000000000       0.000000000000000E+000
  -30.0000000000000       -10.0000000000000       0.000000000000000E+000
  -25.0000000000000       -10.0000000000000       0.000000000000000E+000
  -20.0000000000000       -10.0000000000000       0.000000000000000E+000
  -15.0000000000000       -10.0000000000000       0.000000000000000E+000
  -10.0000000000000       -10.0000000000000       0.000000000000000E+000
  -5.00000000000000       -10.0000000000000       0.000000000000000E+000
  -55.0000000000000        10.0000000000000       0.000000000000000E+000
  -60.0000000000000        10.0000000000000       0.000000000000000E+000
  -65.0000000000000        10.0000000000000       0.000000000000000E+000
  -70.0000000000000        10.0000000000000       0.000000000000000E+000
[...]
 CELL_DATA        2884
 POINT_DATA        4087
 FIELD Result            2
 Displacement_Load_Case01            3        4087 double
 -6.573186353764046E-003  7.268962098121162E-005 -8.298598112353232E-002
 -6.572761037156036E-003 -7.085243571509349E-005 -8.298573826713160E-002
 -2.925322703397381E-003  1.335380912761102E-004 -0.113299736470997     
 -2.925329120542526E-003 -1.299943990441887E-004 -0.113302068640931     
 -2.840692509718145E-004  8.882190289981760E-005 -0.103767442360691     
 -2.825718283469999E-004 -8.840123590807887E-005 -0.103770009956429     
 -2.221526710988728E-004  8.151235689769281E-006 -6.538647191835993E-002
 -2.174138183016443E-004 -2.275222615742480E-005 -6.539185885255622E-002
  1.111628764028118E-004 -5.193507547372147E-005 -1.327075673653839E-002
  1.201015167835156E-004  3.521220609565996E-006 -1.327147504415553E-002
  4.618486312430655E-004 -3.826709724936963E-005 -6.546654226936915E-002
  4.754577070639149E-004 -7.080260568441220E-005 -6.546890062401688E-002
  5.331242764781513E-004  2.899337427996868E-006 -0.103963509280556     
  5.443790072219539E-004 -1.785533208302414E-004 -0.103965633392852     
  3.240608016006641E-003  2.257392102333923E-005 -0.113852616961961     
  3.247491667640521E-003 -2.480070874775959E-004 -0.113854513353454     
  6.939103029629965E-003 -1.832973358993586E-004 -8.390495941611140E-002
  6.934658428001284E-003 -5.266113963935048E-005 -8.393221090791346E-002
  9.861870000801149E-004 -1.983082355900125E-004 -1.825971936918763E-003
  9.703144849755549E-004  8.311837766491676E-006 -1.857177170082893E-003
 -4.469774233056029E-004  5.174004583314750E-005 -7.975294296896821E-004
 -4.469485004662656E-004 -5.170273853525610E-005 -7.975285187217533E-004
 -4.724039298644695E-003  3.734454436371952E-005 -9.057993199509230E-002
 -4.574063128399346E-003  9.186071294363023E-007 -9.336243169878240E-002
 -4.723821464154984E-003 -3.550735156774835E-005 -9.057980273088961E-002
 -5.307346220750569E-003 -2.044756704011063E-004 -8.976564793209080E-002
 -4.793019173026327E-003 -3.647050093793499E-005 -0.100610162985631     
 -4.521210427828260E-003  8.448725476542832E-005 -0.110799980009336     
 -4.302475623837163E-003  1.316163277766352E-004 -0.118892166975682     
 -4.083193605970132E-003  1.429941614651452E-004 -0.124212985565356     
 -3.856714528679030E-003  1.433813096954154E-004 -0.126423524740352     
 -3.626251784715711E-003  1.420085325454210E-004 -0.125516284751827     
 -3.394431389354342E-003  1.405851458488230E-004 -0.121844661358970     
 -3.161642116149831E-003  1.388532029213118E-004 -0.116484575432659     
 -2.931759191153537E-003  6.860784253197306E-005 -0.120209555125750     
 -2.932257074103737E-003  1.786764861263719E-006 -0.122662429226143     
 -2.931756199771280E-003 -6.504174478150279E-005 -0.120210747090408     
 -3.161739109811458E-003 -1.353516690808824E-004 -0.116486751645266     
 -3.394608323718777E-003 -1.371691505730065E-004 -0.121846633367398     
 -3.626497975003584E-003 -1.387153451689056E-004 -0.125518018972657     
 -3.857019310963099E-003 -1.402428939502966E-004 -0.126425007567243     
 -4.083546327597390E-003 -1.400371463036234E-004 -0.124214212958054     
 -4.302865635070422E-003 -1.288620196120125E-004 -0.118893143401140     
 -4.521627090602963E-003 -8.195163199275673E-005 -0.110800719989455     
 -4.793451841158605E-003  3.877656934998293E-005 -0.100610692209537     
 -5.307783246063255E-003  2.065464134749947E-004 -8.976600255149422E-002
 -2.698786615305631E-003  1.397448130318665E-004 -0.119543208019535     
 -2.470573157207416E-003  1.401107139154623E-004 -0.128228516759494     
 -2.241451313707944E-003  1.401103653018567E-004 -0.135141441669210     
 -2.012295003511879E-003  1.401726335484426E-004 -0.139068783677168     
 -1.784114742846847E-003  1.398672968541525E-004 -0.139551927151983     
 -1.557817875610630E-003  1.366653300979831E-004 -0.136496784304239     
 -1.331579965295492E-003  1.240106720948648E-004 -0.130150883781350     
 -1.091106839637877E-003  9.208309242987790E-005 -0.121128607273841     
 -7.863999016939806E-004  4.828179547975004E-005 -0.110826828307084     
 -7.724336786528616E-004  4.347591906947326E-005 -0.110607497493641     
 -8.116548409429403E-004  2.456777606454350E-007 -0.113117067468995     
 -7.716515728870862E-004 -4.300225831893952E-005 -0.110608834140429     
 -7.850902832871049E-004 -4.717488257734291E-005 -0.110829321030875     
 -1.089986601775373E-003 -9.038470273919317E-005 -0.121131060318271     
 -1.330640162178705E-003 -1.218148646777585E-004 -0.130153323905857     
 -1.557047187901071E-003 -1.340599798988750E-004 -0.136499236830211     
 -1.783501836580449E-003 -1.369341104692429E-004 -0.139554403937656     
 -2.011828572429198E-003 -1.369876728836286E-004 -0.139071284626497     
 -2.241120059080782E-003 -1.367440381507281E-004 -0.135143956421891     
 -2.470365791430217E-003 -1.366277924757896E-004 -0.128231023292557     
 -2.698691852156822E-003 -1.362044033848852E-004 -0.119545662254837     
 -5.174726584124068E-004  1.165112149523821E-004 -0.106717334566728     
 -5.511811581729478E-004  7.052560338342681E-005 -0.112156721902772     
 -5.209815549014530E-004  3.770717478881986E-005 -0.116142857477837     
 -4.770605411525073E-004  2.470677278841158E-005 -0.117395073741316     
 -4.334708215161018E-004  2.110568259488103E-005 -0.115342656509183     
 -3.919364434404644E-004  2.023985211729721E-005 -0.109776806069522     
 -3.516204513461691E-004  1.942378346212292E-005 -0.100840832602859     
 -3.115500764806198E-004  1.754558863716564E-005 -8.905437291307604E-002
 -2.699993983447048E-004  1.443696674625895E-005 -7.572805939702067E-002
 -2.340398999006396E-004  1.485886303436077E-006 -7.228541695244617E-002
 -2.339182557716444E-004 -7.244773398085988E-006 -7.473601019807447E-002
 -2.316619808938177E-004 -1.600335269316553E-005 -7.228806739187592E-002
 -2.656301350072590E-004 -2.677938808446039E-005 -7.573344398720502E-002
 -3.075407781724158E-004 -2.781032141371509E-005 -8.905959584121306E-002
 -3.479606337691308E-004 -2.778839734635261E-005 -0.100845796193844     
 -3.886153624320189E-004 -2.687644227855304E-005 -0.109781436666202     
 -4.304777084041250E-004 -2.618093189575063E-005 -0.115346910713097     
 -4.743846227270044E-004 -2.838197312732121E-005 -0.117398934472313     
 -5.186120312672547E-004 -4.013824630069483E-005 -0.116146331885379     
 -5.491072253876125E-004 -7.186254894070249E-005 -0.112159841032430     
 -5.156858676283982E-004 -1.168981510304237E-004 -0.106720139798107     
 -1.939515869686496E-004  1.393448640121147E-005 -6.468197160089052E-002
 -1.614216918236944E-004  1.237189429181485E-005 -6.607525901969123E-002
 -1.270143484911419E-004  1.038359991713782E-005 -6.603827389804512E-002
 -9.197936972874352E-005  8.547337643855598E-006 -6.360165239264585E-002
 -5.686409488949793E-005  6.949765020908588E-006 -5.848442327735728E-002
 -2.200178928312446E-005  5.507934561655889E-006 -5.077905104375696E-002
  1.202938135559916E-005  3.916501218131821E-006 -4.095747624127694E-002
  4.428566473348321E-005  2.384084168067380E-007 -2.987891225361228E-002
  7.503557865937580E-005 -8.043379538666340E-006 -1.916714820267615E-002
  1.166908329211889E-004 -3.112769496950308E-005 -1.981596773241687E-002
  1.192626865617560E-004 -2.417838474784529E-005 -2.237746345126198E-002
  1.212901387321717E-004 -1.724667057971794E-005 -1.981513843079772E-002
  8.358084551124374E-005 -3.608628356320941E-005 -1.916822029151857E-002
  5.238511598515474E-005 -4.020798740732781E-005 -2.988052548224185E-002
  1.967699394077641E-005 -3.996186297569859E-005 -4.095985977568103E-002
 -1.479782515833201E-005 -3.785516828142791E-005 -5.078208133719641E-002
 -5.009418734037193E-005 -3.581857585726946E-005 -5.848800288093275E-002
 -8.563409495135635E-005 -3.415235211271986E-005 -6.360572298610559E-002
 -1.210843181312979E-004 -3.293479158828481E-005 -6.604277790592031E-002
 -1.558974981862657E-004 -3.207447546224494E-005 -6.608013004462746E-002
 -1.888240338342097E-004 -3.098896814980894E-005 -6.468713906564527E-002
  1.521141717216348E-004 -1.310928399364790E-005 -1.915907858100449E-002
  1.850580513656589E-004 -8.892402983348584E-006 -2.987462657886678E-002
  2.186702424791322E-004 -9.497814156024291E-006 -4.096023641089899E-002
  2.538949140762357E-004 -1.249298526005115E-005 -5.079068440761525E-002
  2.899833013898046E-004 -1.578960254983689E-005 -5.850646648454740E-002
  3.263820348561233E-004 -1.897576999266279E-005 -6.363539064666796E-002
  3.627453160372249E-004 -2.191573994864250E-005 -6.608452613205416E-002
  3.985075940633531E-004 -2.466760250211030E-005 -6.613425630294957E-002
  4.323855759072080E-004 -2.779845482381021E-005 -6.475309574246840E-002
  4.786256351228727E-004 -4.536982153366590E-005 -7.236362567318035E-002
  4.831033405000684E-004 -5.451806809246320E-005 -7.481304933466494E-002
  4.853986317777450E-004 -6.367478739296131E-005 -7.236473270420850E-002
  4.458517313248410E-004 -7.439329796861903E-005 -6.475537170178218E-002
  4.117578681352764E-004 -7.073401846478827E-005 -6.613613988509559E-002
  3.757098790323553E-004 -6.682172607782237E-005 -6.608587158337892E-002
  3.389918497496843E-004 -6.325779967255859E-005 -6.363610512062301E-002
  3.021693596381714E-004 -6.013471565019061E-005 -5.850653430050319E-002
  2.655882426488065E-004 -5.735118094446665E-005 -5.079017168448968E-002
  2.298019963783128E-004 -5.453027411146607E-005 -4.095927109349888E-002
  1.955607304573463E-004 -4.961415204999012E-005 -2.987341665591470E-002
  1.619087701741409E-004 -4.020422765227896E-005 -1.915828408747125E-002
  5.114054247966743E-004 -3.660584176815071E-005 -7.581494831572295E-002
  5.545807060865849E-004 -3.799948002267610E-005 -8.914932156021493E-002
  5.962696585545713E-004 -4.054263406581341E-005 -0.100944167830227     
  6.382342192524497E-004 -4.405636851541892E-005 -0.109888996158437     
  6.814715277929842E-004 -4.739541946209191E-005 -0.115464543213092     
  7.268382940714165E-004 -4.780018033444676E-005 -0.117527954849917     
  7.725706418664841E-004 -3.844373716095010E-005 -0.116288492897279     
  8.042995263679776E-004 -8.668969679251028E-006 -0.112317259151068     
  7.707312562860295E-004  3.472910902641467E-005 -0.106895057239151     
  1.035476258702190E-003 -4.356808805487989E-005 -0.110804618610146     
  1.078873808052814E-003 -8.787738667252072E-005 -0.113314487485807     
  1.041279288032271E-003 -1.321614864219451E-004 -0.110805710585454     
  7.826488544863283E-004 -2.044514229971075E-004 -0.106897161279376     
  8.167055840443105E-004 -1.548426586218102E-004 -0.112319352449310     
  7.853755552234293E-004 -1.186480650902425E-004 -0.116290565754863     
  7.399713757948185E-004 -1.026939640868752E-004 -0.117530013458928     
  6.948621316222151E-004 -9.635448339802150E-005 -0.115466596685877     
  6.518114813246612E-004 -9.283822932835631E-005 -0.109891055577753     
  6.099626625632051E-004 -8.942105972428498E-005 -0.100946248052863     
  5.683185692245139E-004 -8.499299217525366E-005 -8.915143851377169E-002
  5.251165380634796E-004 -7.941044082030658E-005 -7.581713160510421E-002
  1.047287854909728E-003 -4.163378967949421E-005 -0.111046116431311     
  1.359483136686666E-003  1.164000869559844E-008 -0.121377469778889     
  1.606055506608107E-003  2.961381370536893E-005 -0.130432930729527     
  1.838111179441565E-003  3.962935595353348E-005 -0.136814760079917     
  2.070262006999110E-003  4.011800816166884E-005 -0.139907960780882     
  2.304373857696072E-003  3.780345812568113E-005 -0.139464416582121     
  2.539516092125148E-003  3.530163872085041E-005 -0.135577675145174     
  2.774625736886764E-003  3.309575018750411E-005 -0.128705774930254     
  3.008694035952843E-003  3.075328135212319E-005 -0.120060829638481     
  3.250030648842337E-003 -4.421587826687202E-005 -0.120761891009643     
  3.252340805143407E-003 -1.128328541462605E-004 -0.123214629822183     
  3.253447268104680E-003 -1.813916001189296E-004 -0.120762962649851     
  3.016355237358957E-003 -2.524326713228369E-004 -0.120062125012489     
  2.782986222468688E-003 -2.506553637492248E-004 -0.128706745439947     
  2.548503759098257E-003 -2.484106537743879E-004 -0.135578561581168     
  2.313917868109286E-003 -2.461662754167029E-004 -0.139465393320803     
  2.080291485077061E-003 -2.434741676862069E-004 -0.139909133248707     
  1.848555295595666E-003 -2.377538492780733E-004 -0.136816183364011     
  1.616843647104879E-003 -2.223171355628322E-004 -0.130434618838793     
  1.370544645668031E-003 -1.871355183793027E-004 -0.121379398820631     
  1.058533158920945E-003 -1.397836635623361E-004 -0.111048216621251     
  3.484200191374039E-003  2.615014188550270E-005 -0.117072096845676     
  3.723782629173678E-003  2.656857216511924E-005 -0.122471700941727     
  3.962264692222999E-003  2.688520065896554E-005 -0.126183667003509     
  4.199400428466419E-003  2.735440775557143E-005 -0.127131111267792     
  4.432634831551295E-003  2.633467368570624E-005 -0.124960189800028     
  4.658799817865037E-003  1.474694658835149E-005 -0.119677977316997     
  4.884457551191350E-003 -3.182927477126548E-005 -0.111622871622382     
  5.162538657824919E-003 -1.509660909027793E-004 -0.101468080508925     
  5.680062124824599E-003 -3.162121076786829E-004 -9.065602779313420E-002
  5.112600065863852E-003 -1.513110943165887E-004 -9.150442265502080E-002
  4.963677416921596E-003 -1.181523579363084E-004 -9.429360904608228E-002
  5.110635243092986E-003 -8.490726709101866E-005 -9.151849872412270E-002
  5.677208500658433E-003  7.856805208322969E-005 -9.068183224129069E-002
  5.161065227564761E-003 -8.762718279794926E-005 -0.101491576280497     
  4.884269731930175E-003 -2.070644330577281E-004 -0.111643532395806     
  4.659829187275640E-003 -2.533207701353052E-004 -0.119695569367198     
  4.434813109942701E-003 -2.639968905543085E-004 -0.124974613013082     
  4.202659035592983E-003 -2.635476834318817E-004 -0.127142386780218     
  3.966534979943600E-003 -2.610865126463105E-004 -0.126191953590225     
  3.728995909446327E-003 -2.582889961582997E-004 -0.122477307795265     
  3.490286434588712E-003 -2.549347340808683E-004 -0.117075470843891     
  5.450068202695965E-003 -5.663040995012544E-005 -8.862867709277723E-002
  4.703588345701501E-003 -2.220444527552073E-004 -9.634617763497175E-002
  4.196329066541093E-003 -3.400980138156557E-004 -0.102163572861675     
  3.741152542943340E-003 -3.848652846183147E-004 -0.104139228113024     
  3.285414743581295E-003 -3.945585806302034E-004 -0.101045477468378     
  2.823495798222356E-003 -3.940145119521121E-004 -9.203690959956827E-002
  2.361186323535317E-003 -3.915222945182675E-004 -7.681249058611501E-002
  1.905905900168099E-003 -3.816645477454892E-004 -5.578325603883581E-002
  1.459140240339226E-003 -3.458008101492949E-004 -3.013253769053295E-002
  9.595283258874711E-004 -1.375592125165944E-004 -1.889842172958778E-003
  9.535960956289820E-004 -9.511354895368970E-005 -1.905833030650094E-003
  9.515831808777253E-004 -5.261939854272786E-005 -1.905532462797579E-003
  1.444767504445655E-003  1.485028562524214E-004 -3.016371746547296E-002
  1.892944630572161E-003  1.776472038987682E-004 -5.581434794125507E-002
  2.349568940689227E-003  1.814774600733073E-004 -7.684346715288744E-002
  2.813150982251005E-003  1.785960741567427E-004 -9.206774412160913E-002
  3.276268955768808E-003  1.743850019478386E-004 -0.101076119698190     
  3.733132341006053E-003  1.605176527346179E-004 -0.104169600980488     
  4.189361311725163E-003  1.121205963662525E-004 -0.102193575472637     
  4.697599934997253E-003 -9.049368027073109E-006 -9.637566114793736E-002
  5.444960039457308E-003 -1.770975983770906E-004 -8.865727373320700E-002
 -5.055193161702116E-003 -5.467224989833915E-005 -8.768551485166902E-002
 -4.289295761366841E-003  1.141014852331123E-004 -9.538199048553607E-002
 -3.765666566226628E-003  2.351639359594095E-004 -0.101181251351440     
 -3.294745987153559E-003  2.823076322876969E-004 -0.103141428452466     
 -2.823269152762291E-003  2.943380731999684E-004 -0.100034412335182     
 -2.345818017266795E-003  2.964680099008535E-004 -9.101429094410050E-002
 -1.868961806240290E-003  2.967022348770476E-004 -7.578004174159816E-002
 -1.401213048471448E-003  2.870636861281094E-004 -5.474396346373236E-002
 -9.429334337037023E-004  2.447003800757100E-004 -2.909295509755093E-002
 -4.284532373283832E-004  2.029007889988956E-005 -8.208518076399812E-004
 -4.270871789182999E-004  1.531863549835433E-008 -8.231731154633147E-004
 -4.284396082092392E-004 -2.025807886235380E-005 -8.208491594358376E-004
 -9.428129126791557E-004 -2.445944065920121E-004 -2.909294222502780E-002
 -1.401014334518414E-003 -2.868605337493395E-004 -5.474393950153120E-002
 -1.868695578856822E-003 -2.963652597464795E-004 -7.578000588503161E-002
 -2.345495055289958E-003 -2.959662309535886E-004 -9.101424137163085E-002
 -2.822900444054171E-003 -2.936458123958259E-004 -0.100034346475512     
 -3.294342516720410E-003 -2.814047675868111E-004 -0.103141342633675     
 -3.765239308334023E-003 -2.340358393896836E-004 -0.101181140231225     
 -4.288855685776597E-003 -1.127387972182419E-004 -9.538184572184578E-002
 -5.054752228641543E-003  5.627360435586837E-005 -8.768532494202501E-002
 -4.934534856707518E-003  2.438786673703526E-004 -9.420344970426457E-002
 -4.656281365486362E-003  1.036703692143561E-006 -9.617278247093752E-002
 -4.934320786808497E-003 -2.418071331191971E-004 -9.420326747623665E-002
 -4.780123588495892E-003  7.808406171403066E-005 -0.101838392262444     
 -4.706989160664584E-003  1.154789658854841E-006 -0.102408240473548     
 -4.779913393945316E-003 -7.577538341475090E-005 -0.101838128379483     
 -4.560759380514263E-003 -2.568319881918597E-005 -0.110705167984279     
 -4.558467065111138E-003  1.271000804291073E-006 -0.110654408735167     
 -4.560557207551070E-003  2.822360020764569E-005 -0.110704798402998     
 -4.326930633926769E-003 -6.307719231219215E-005 -0.118519765297992     
 -4.335441340018668E-003  1.381944260655536E-006 -0.118368784479728     
 -4.326741758535198E-003  6.583869051373388E-005 -0.118519277062891     
 -4.092179297208803E-003 -7.082589793531829E-005 -0.123841794227842     
 -4.097319122600987E-003  1.484899138761313E-006 -0.123695748581390     
 -4.092009061731636E-003  7.379250015200746E-005 -0.123841180479515     
 -3.858678457576085E-003 -7.032962488916037E-005 -0.126047654348004     
 -3.860421086906522E-003  1.577197846485353E-006 -0.125897861620590     
 -3.858532191973720E-003  7.348002602343831E-005 -0.126046912772309     
 -3.626000234199567E-003 -6.888051142079209E-005 -0.125358058697006     
 -3.626207600173030E-003  1.656179977306767E-006 -0.125284061733469     
 -3.625883264505519E-003  7.218807685597380E-005 -0.125357192048692     
 -3.393661124292299E-003 -6.764794078965562E-005 -0.122807014425023     
 -3.393554040275944E-003  1.719172803836825E-006 -0.123257798652629     
 -3.393578766176917E-003  7.108071773626662E-005 -0.122806030368069     
 -3.161496875253723E-003 -6.568352761008103E-005 -0.120258297191488     
 -3.162497540466635E-003  1.763543437083525E-006 -0.121971371601555     
 -3.161454417981495E-003  6.920417461562938E-005 -0.120257202314302     
 -2.701410980943181E-003 -6.707747964440463E-005 -0.123491461215223     
 -2.702307927933053E-003  1.786263079648341E-006 -0.125256130403297     
 -2.701464913132137E-003  7.064190086883740E-005 -0.123490229897320     
 -2.471190806237805E-003 -6.770325061855318E-005 -0.129269036363721     
 -2.471805548714304E-003  1.759187330297011E-006 -0.129762484233980     
 -2.471301002799120E-003  7.121278063469902E-005 -0.129267784980192     
 -2.241296586815303E-003 -6.770787961659679E-005 -0.134994998658689     
 -2.241423845492446E-003  1.702590972245631E-006 -0.134926262404477     
 -2.241468711643006E-003  7.110334633460016E-005 -0.134993741537582     
 -2.011394365662752E-003 -6.796727141722550E-005 -0.138676403662037     