# vtk DataFile Version 3.0
 Bridge                                                                         
  
ASCII
DATASET UNSTRUCTURED_GRID
 POINTS        4087 double
   200.000000000000       -10.0000000000000       0.000000000000000E+000
   200.000000000000        10.0000000000000       0.000000000000000E+000
   150.000000000000        10.0000000000000       0.000000000000000E+000
   150.000000000000       -10.0000000000000       0.000000000000000E+000
   100.000000000000        10.0000000000000       0.000000000000000E+000
   100.000000000000       -10.0000000000000       0.000000000000000E+000
   50.0000000000000        10.0000000000000       0.000000000000000E+000
   50.0000000000000       -10.0000000000000       0.000000000000000E+000
  0.000000000000000E+000   10.0000000000000       0.000000000000000E+000
  0.000000000000000E+000  -10.0000000000000       0.000000000000000E+000
  -50.0000000000000        10.0000000000000       0.000000000000000E+000
  -50.0000000000000       -10.0000000000000       0.000000000000000E+000
  -100.000000000000        10.0000000000000       0.000000000000000E+000
  -100.000000000000       -10.0000000000000       0.000000000000000E+000
  -150.000000000000        10.0000000000000       0.000000000000000E+000
  -150.000000000000       -10.0000000000000       0.000000000000000E+000
  -200.000000000000        10.0000000000000       0.000000000000000E+000
  -200.000000000000       -10.0000000000000       0.000000000000000E+000
  -250.000000000000        10.0000000000000       0.000000000000000E+000
  -250.000000000000       -10.0000000000000       0.000000000000000E+000
   250.000000000000       -10.0000000000000       0.000000000000000E+000
   250.000000000000        10.0000000000000       0.000000000000000E+000
   200.000000000000       -5.00000000000000       0.000000000000000E+000
   200.000000000000       0.000000000000000E+000  0.000000000000000E+000
   200.000000000000        5.00000000000000       0.000000000000000E+000
   195.000000000000        10.0000000000000       0.000000000000000E+000
   190.000000000000        10.0000000000000       0.000000000000000E+000
   185.000000000000        10.0000000000000       0.000000000000000E+000
   180.000000000000        10.0000000000000       0.000000000000000E+000
   175.000000000000        10.0000000000000       0.000000000000000E+000
   170.000000000000        10.0000000000000       0.000000000000000E+000
   165.000000000000        10.0000000000000       0.000000000000000E+000
   160.000000000000        10.0000000000000       0.000000000000000E+000
   155.000000000000        10.0000000000000       0.000000000000000E+000
   150.000000000000        5.00000000000000       0.000000000000000E+000
   150.000000000000       0.000000000000000E+000  0.000000000000000E+000
   150.000000000000       -5.00000000000000       0.000000000000000E+000
   155.000000000000       -10.0000000000000       0.000000000000000E+000
   160.000000000000       -10.0000000000000       0.000000000000000E+000
   165.000000000000       -10.0000000000000       0.000000000000000E+000
   170.000000000000       -10.0000000000000       0.000000000000000E+000
   175.000000000000       -10.0000000000000       0.000000000000000E+000
   180.000000000000       -10.0000000000000       0.000000000000000E+000
   185.000000000000       -10.0000000000000       0.000000000000000E+000
   190.000000000000       -10.0000000000000       0.000000000000000E+000
   195.000000000000       -10.0000000000000       0.000000000000000E+000
   145.000000000000        10.0000000000000       0.000000000000000E+000
   140.000000000000        10.0000000000000       0.000000000000000E+000
   135.000000000000        10.0000000000000       0.000000000000000E+000
   130.000000000000        10.0000000000000       0.000000000000000E+000
   125.000000000000        10.0000000000000       0.000000000000000E+000
   120.000000000000        10.0000000000000       0.000000000000000E+000
   115.000000000000        10.0000000000000       0.000000000000000E+000
   110.000000000000        10.0000000000000       0.000000000000000E+000
   105.000000000000        10.0000000000000       0.000000000000000E+000
   100.000000000000        5.00000000000000       0.000000000000000E+000
   100.000000000000       0.000000000000000E+000  0.000000000000000E+000
   100.000000000000       -5.00000000000000       0.000000000000000E+000
   105.000000000000       -10.0000000000000       0.000000000000000E+000
   110.000000000000       -10.0000000000000       0.000000000000000E+000
   115.000000000000       -10.0000000000000       0.000000000000000E+000
   120.000000000000       -10.0000000000000       0.000000000000000E+000
   125.000000000000       -10.0000000000000       0.000000000000000E+000
   130.000000000000       -10.0000000000000       0.000000000000000E+000
   135.000000000000       -10.0000000000000       0.000000000000000E+000
   140.000000000000       -10.0000000000000       0.000000000000000E+000
   145.000000000000       -10.0000000000000       0.000000000000000E+000
   95.0000000000000        10.0000000000000       0.000000000000000E+000
   90.0000000000000        10.0000000000000       0.000000000000000E+000
   85.0000000000000        10.0000000000000       0.000000000000000E+000
   80.0000000000000        10.0000000000000       0.000000000000000E+000
   75.0000000000000        10.0000000000000       0.000000000000000E+000
   70.0000000000000        10.0000000000000       0.000000000000000E+000
   65.0000000000000        10.0000000000000       0.000000000000000E+000
   60.0000000000000        10.0000000000000       0.000000000000000E+000
   55.0000000000000        10.0000000000000       0.000000000000000E+000
   50.0000000000000        5.00000000000000       0.000000000000000E+000
   50.0000000000000       0.000000000000000E+000  0.000000000000000E+000
   50.0000000000000       -5.00000000000000       0.000000000000000E+000
   55.0000000000000       -10.0000000000000       0.000000000000000E+000
   60.0000000000000       -10.0000000000000       0.000000000000000E+000
   65.0000000000000       -10.0000000000000       0.000000000000000E+000
   70.0000000000000       -10.0000000000000       0.000000000000000E+000
   75.0000000000000       -10.0000000000000       0.000000000000000E+000
   80.0000000000000       -10.0000000000000       0.000000000000000E+000
   85.0000000000000       -10.0000000000000       0.000000000000000E+000
   90.0000000000000       -10.0000000000000       0.000000000000000E+000
   95.0000000000000       -10.0000000000000       0.000000000000000E+000
   45.0000000000000        10.0000000000000       0.000000000000000E+000
   40.0000000000000        10.0000000000000       0.000000000000000E+000
   35.0000000000000        10.0000000000000       0.000000000000000E+000
   30.0000000000000        10.0000000000000       0.000000000000000E+000
   25.0000000000000        10.0000000000000       0.000000000000000E+000
   20.0000000000000        10.0000000000000       0.000000000000000E+000
   15.0000000000000        10.0000000000000       0.000000000000000E+000
   10.0000000000000        10.0000000000000       0.000000000000000E+000
   5.00000000000000        10.0000000000000       0.000000000000000E+000
  0.000000000000000E+000   5.00000000000000       0.000000000000000E+000
  0.000000000000000E+000  0.000000000000000E+000  0.000000000000000E+000
  0.000000000000000E+000  -5.00000000000000       0.000000000000000E+000
   5.00000000000000       -10.0000000000000       0.000000000000000E+000
   10.0000000000000       -10.0000000000000       0.000000000000000E+000
   15.0000000000000       -10.0000000000000       0.000000000000000E+000
   20.0000000000000       -10.0000000000000       0.000000000000000E+000
   25.0000000000000       -10.0000000000000       0.000000000000000E+000
   30.0000000000000       -10.0000000000000       0.000000000000000E+000
   35.0000000000000       -10.0000000000000       0.000000000000000E+000
   40.0000000000000       -10.0000000000000       0.000000000000000E+000
   45.0000000000000       -10.0000000000000       0.000000000000000E+000
  -5.00000000000000        10.0000000000000       0.000000000000000E+000
  -10.0000000000000        10.0000000000000       0.000000000000000E+000
  -15.0000000000000        10.0000000000000       0.000000000000000E+000
  -20.0000000000000        10.0000000000000       0.000000000000000E+000
  -25.0000000000000        10.0000000000000       0.000000000000000E+000
  -30.0000000000000        10.0000000000000       0.000000000000000E+000
  -35.0000000000000        10.0000000000000       0.000000000000000E+000
  -40.0000000000000        10.0000000000000       0.000000000000000E+000
  -45.0000000000000        10.0000000000000       0.000000000000000E+000
  -50.0000000000000        5.00000000000000       0.000000000000000E+000
  -50.0000000000000       0.000000000000000E+000  0.000000000000000E+000
  -50.0000000000000       -5.00000000000000       0.000000000000000E+000
  -45.0000000000000       -10.0000000000000       0.000000000000000E+000
  -40.0000000000000       -10.0000000000000       0.000000000000000E+000
  -35.0000000000000       -10.0000000000000       0.000000000000000E+000
  -30.0000000000000       -10.0000000000000       0.000000000000000E+000
  -25.0000000000000       -10.0000000000000       0.000000000000000E+000
  -20.0000000000000       -10.0000000000000       0.000000000000000E+000
  -15.0000000000000       -10.0000000000000       0.000000000000000E+000
  -10.0000000000000       -10.0000000000000       0.000000000000000E+000
  -5.00000000000000       -10.0000000000000       0.000000000000000E+000
  -55.0000000000000        10.0000000000000       0.000000000000000E+000
  -60.0000000000000        10.0000000000000       0.000000000000000E+000
  -65.0000000000000        10.0000000000000       0.000000000000000E+000
  -70.0000000000000        10.0000000000000       0.000000000000000E+000
[...]
 CELL_DATA        2884
 POINT_DATA        4087
 FIELD Result            2
 Displacement_Load_Case01            3        4087 double
 -6.573186353764108E-003  7.268962098267843E-005 -8.298598112352541E-002
 -6.572761037155003E-003 -7.085243571362420E-005 -8.298573826712410E-002
 -2.925322703396805E-003  1.335380912802250E-004 -0.113299736470987     
 -2.925329120542874E-003 -1.299943990400459E-004 -0.113302068640927     
 -2.840692509719954E-004  8.882190290544145E-005 -0.103767442360686     
 -2.825718283471959E-004 -8.840123590244972E-005 -0.103770009956431     
 -2.221526710992642E-004  8.151235694792727E-006 -6.538647191835789E-002
 -2.174138183014283E-004 -2.275222615240915E-005 -6.539185885255810E-002
  1.111628764021700E-004 -5.193507547110416E-005 -1.327075673653717E-002
  1.201015167840891E-004  3.521220612175300E-006 -1.327147504415579E-002
  4.618486312423550E-004 -3.826709724993444E-005 -6.546654226936909E-002
  4.754577070644016E-004 -7.080260568496593E-005 -6.546890062401543E-002
  5.331242764775325E-004  2.899337424915069E-006 -0.103963509280559     
  5.443790072221764E-004 -1.785533208333381E-004 -0.103965633392854     
  3.240608016006740E-003  2.257392101960807E-005 -0.113852616961969     
  3.247491667640378E-003 -2.480070874813560E-004 -0.113854513353452     
  6.939103029630774E-003 -1.832973359012076E-004 -8.390495941611777E-002
  6.934658428000810E-003 -5.266113964120510E-005 -8.393221090791322E-002
  9.861870000801812E-004 -1.983082355900383E-004 -1.825971936918785E-003
  9.703144849755261E-004  8.311837766471903E-006 -1.857177170082897E-003
 -4.469774233055944E-004  5.174004583316032E-005 -7.975294296896707E-004
 -4.469485004662264E-004 -5.170273853523337E-005 -7.975285187217458E-004
 -4.724039298644621E-003  3.734454436518308E-005 -9.057993199508423E-002
 -4.574063128399028E-003  9.186071308991605E-007 -9.336243169877372E-002
 -4.723821464154399E-003 -3.550735156628381E-005 -9.057980273088119E-002
 -5.307346220749650E-003 -2.044756703993473E-004 -8.976564793208161E-002
 -4.793019173025458E-003 -3.647050093591381E-005 -0.100610162985619     
 -4.521210427827421E-003  8.448725476771576E-005 -0.110799980009324     
 -4.302475623836352E-003  1.316163277791952E-004 -0.118892166975670     
 -4.083193605969353E-003  1.429941614679782E-004 -0.124212985565344     
 -3.856714528678285E-003  1.433813096985179E-004 -0.126423524740341     
 -3.626251784715002E-003  1.420085325487883E-004 -0.125516284751816     
 -3.394431389353673E-003  1.405851458524491E-004 -0.121844661358960     
 -3.161642116149207E-003  1.388532029251879E-004 -0.116484575432649     
 -2.931759191153192E-003  6.860784253610270E-005 -0.120209555125741     
 -2.932257074103621E-003  1.786764865403200E-006 -0.122662429226135     
 -2.931756199771395E-003 -6.504174477735892E-005 -0.120210747090402     
 -3.161739109811799E-003 -1.353516690769757E-004 -0.116486751645261     
 -3.394608323719110E-003 -1.371691505693494E-004 -0.121846633367391     
 -3.626497975003906E-003 -1.387153451655067E-004 -0.125518018972647     
 -3.857019310963407E-003 -1.402428939471620E-004 -0.126425007567230     
 -4.083546327597681E-003 -1.400371463007587E-004 -0.124214212958039     
 -4.302865635070694E-003 -1.288620196094233E-004 -0.118893143401124     
 -4.521627090603214E-003 -8.195163199044766E-005 -0.110800719989441     
 -4.793451841158826E-003  3.877656935200500E-005 -0.100610692209525     
 -5.307783246063426E-003  2.065464134767272E-004 -8.976600255148513E-002
 -2.698786615305101E-003  1.397448130362164E-004 -0.119543208019523     
 -2.470573157206937E-003  1.401107139200338E-004 -0.128228516759479     
 -2.241451313707523E-003  1.401103653066350E-004 -0.135141441669194     
 -2.012295003511521E-003  1.401726335534102E-004 -0.139068783677151     
 -1.784114742846555E-003  1.398672968592897E-004 -0.139551927151966     
 -1.557817875610408E-003  1.366653301032686E-004 -0.136496784304223     
 -1.331579965295346E-003  1.240106721002758E-004 -0.130150883781336     
 -1.091106839637813E-003  9.208309243539082E-005 -0.121128607273830     
 -7.863999016940158E-004  4.828179548533854E-005 -0.110826828307077     
 -7.724336786529523E-004  4.347591907510392E-005 -0.110607497493638     
 -8.116548409430467E-004  2.456777662800649E-007 -0.113117067468994     
 -7.716515728872214E-004 -4.300225831330527E-005 -0.110608834140429     
 -7.850902832873118E-004 -4.717488257175395E-005 -0.110829321030876     
 -1.089986601775606E-003 -9.038470273366523E-005 -0.121131060318268     
 -1.330640162178969E-003 -1.218148646723223E-004 -0.130153323905852     
 -1.557047187901362E-003 -1.340599798935602E-004 -0.136499236830204     
 -1.783501836580763E-003 -1.369341104640756E-004 -0.139554403937648     
 -2.011828572429528E-003 -1.369876728786311E-004 -0.139071284626488     
 -2.241120059081125E-003 -1.367440381459197E-004 -0.135143956421883     
 -2.470365791430566E-003 -1.366277924711874E-004 -0.128231023292550     
 -2.698691852157173E-003 -1.362044033805046E-004 -0.119545662254832     
 -5.174726584125546E-004  1.165112149579996E-004 -0.106717334566726     
 -5.511811581731042E-004  7.052560338904613E-005 -0.112156721902773     
 -5.209815549016312E-004  3.770717479442496E-005 -0.116142857477840     
 -4.770605411527113E-004  2.470677279398483E-005 -0.117395073741320     
 -4.334708215163333E-004  2.110568260040564E-005 -0.115342656509189     
 -3.919364434407251E-004  2.023985212275635E-005 -0.109776806069527     
 -3.516204513464603E-004  1.942378346749935E-005 -0.100840832602863     
 -3.115500764809429E-004  1.754558864244153E-005 -8.905437291307849E-002
 -2.699993983450612E-004  1.443696675141547E-005 -7.572805939702092E-002
 -2.340398999008812E-004  1.485886308461371E-006 -7.228541695244566E-002
 -2.339182557717343E-004 -7.244773393060861E-006 -7.473601019807490E-002
 -2.316619808937557E-004 -1.600335268814370E-005 -7.228806739187696E-002
 -2.656301350070891E-004 -2.677938807930897E-005 -7.573344398720677E-002
 -3.075407781722892E-004 -2.781032140844432E-005 -8.905959584121481E-002
 -3.479606337690456E-004 -2.778839734098151E-005 -0.100845796193846     
 -3.886153624319732E-004 -2.687644227309951E-005 -0.109781436666203     
 -4.304777084041170E-004 -2.618093189023168E-005 -0.115346910713098     
 -4.743846227270317E-004 -2.838197312175256E-005 -0.117398934472315     
 -5.186120312673157E-004 -4.013824629509028E-005 -0.116146331885381     
 -5.491072253877079E-004 -7.186254893507407E-005 -0.112159841032433     
 -5.156858676285343E-004 -1.168981510247844E-004 -0.106720139798109     
 -1.939515869690791E-004  1.393448640606379E-005 -6.468197160088664E-002
 -1.614216918241584E-004  1.237189429648174E-005 -6.607525901968547E-002
 -1.270143484916380E-004  1.038359992160093E-005 -6.603827389803783E-002
 -9.197936972926956E-005  8.547337648097744E-006 -6.360165239263768E-002
 -5.686409489005171E-005  6.949765024913527E-006 -5.848442327734917E-002
 -2.200178928370382E-005  5.507934565408348E-006 -5.077905104374988E-002
  1.202938135499654E-005  3.916501221617343E-006 -4.095747624127147E-002
  4.428566473286046E-005  2.384084200117216E-007 -2.987891225360862E-002
  7.503557865873833E-005 -8.043379535753746E-006 -1.916714820267413E-002
  1.166908329208301E-004 -3.112769496688560E-005 -1.981596773241567E-002
  1.192626865616949E-004 -2.417838474522816E-005 -2.237746345126105E-002
  1.212901387324123E-004 -1.724667057710316E-005 -1.981513843079734E-002
  8.358084551177826E-005 -3.608628356029340E-005 -1.916822029151887E-002
  5.238511598565887E-005 -4.020798740412268E-005 -2.988052548224239E-002
  1.967699394125148E-005 -3.996186297221583E-005 -4.095985977568192E-002
 -1.479782515788738E-005 -3.785516827767949E-005 -5.078208133719767E-002
 -5.009418733995993E-005 -3.581857585326891E-005 -5.848800288093418E-002
 -8.563409495097928E-005 -3.415235210848213E-005 -6.360572298610714E-002
 -1.210843181309581E-004 -3.293479158382616E-005 -6.604277790592207E-002
 -1.558974981859654E-004 -3.207447545758287E-005 -6.608013004462936E-002
 -1.888240338339507E-004 -3.098896814496223E-005 -6.468713906564717E-002
  1.521141717209624E-004 -1.310928399134405E-005 -1.915907858100319E-002
  1.850580513649685E-004 -8.892402981363078E-006 -2.987462657886534E-002
  2.186702424784294E-004 -9.497814154359905E-006 -4.096023641089740E-002
  2.538949140755239E-004 -1.249298525870911E-005 -5.079068440761367E-002
  2.899833013890868E-004 -1.578960254881763E-005 -5.850646648454606E-002
  3.263820348554019E-004 -1.897576999196564E-005 -6.363539064666711E-002
  3.627453160365026E-004 -2.191573994826566E-005 -6.608452613205389E-002
  3.985075940626325E-004 -2.466760250205067E-005 -6.613425630294963E-002
  4.323855759064915E-004 -2.779845482406324E-005 -6.475309574246868E-002
  4.786256351224657E-004 -4.536982153422782E-005 -7.236362567317928E-002
  4.831033404999583E-004 -5.451806809302293E-005 -7.481304933466354E-002
  4.853986317779320E-004 -6.367478739351837E-005 -7.236473270420705E-002
  4.458517313253471E-004 -7.439329796886507E-005 -6.475537170178151E-002
  4.117578681357990E-004 -7.073401846472182E-005 -6.613613988509522E-002
  3.757098790328916E-004 -6.682172607743867E-005 -6.608587158337857E-002
  3.389918497502316E-004 -6.325779967185443E-005 -6.363610512062254E-002
  3.021693596387267E-004 -6.013471564916412E-005 -5.850653430050247E-002
  2.655882426493669E-004 -5.735118094311765E-005 -5.079017168448883E-002
  2.298019963788755E-004 -5.453027410979595E-005 -4.095927109349819E-002
  1.955607304579092E-004 -4.961415204800251E-005 -2.987341665591439E-002
  1.619087701747045E-004 -4.020422764997877E-005 -1.915828408747132E-002
  5.114054247959784E-004 -3.660584176900578E-005 -7.581494831572126E-002
  5.545807060859020E-004 -3.799948002381664E-005 -8.914932156021145E-002
  5.962696585539013E-004 -4.054263406723073E-005 -0.100944167830222     
  6.382342192517930E-004 -4.405636851710404E-005 -0.109888996158431     
  6.814715277923411E-004 -4.739541946403533E-005 -0.115464543213086     
  7.268382940707873E-004 -4.780018033663864E-005 -0.117527954849912     
  7.725706418658694E-004 -3.844373716338011E-005 -0.116288492897278     
  8.042995263673764E-004 -8.668969681906893E-006 -0.112317259151069     
  7.707312562854339E-004  3.472910902354517E-005 -0.106895057239153     
  1.035476258701848E-003 -4.356808805797289E-005 -0.110804618610148     
  1.078873808052669E-003 -8.787738667561909E-005 -0.113314487485808     
  1.041279288032316E-003 -1.321614864250442E-004 -0.110805710585456     
  7.826488544865940E-004 -2.044514229999912E-004 -0.106897161279376     
  8.167055840446068E-004 -1.548426586244698E-004 -0.112319352449307     
  7.853755552237514E-004 -1.186480650926694E-004 -0.116290565754857     
  7.399713757951645E-004 -1.026939640890613E-004 -0.117530013458920     
  6.948621316225848E-004 -9.635448339995829E-005 -0.115466596685869     
  6.518114813250548E-004 -9.283822933003468E-005 -0.109891055577746     
  6.099626625636226E-004 -8.942105972569558E-005 -0.100946248052857     
  5.683185692249547E-004 -8.499299217638732E-005 -8.915143851376728E-002
  5.251165380639435E-004 -7.941044082115409E-005 -7.581713160510141E-002
  1.047287854909218E-003 -4.163378968277125E-005 -0.111046116431312     
  1.359483136686236E-003  1.164000526362612E-008 -0.121377469778889     
  1.606055506607747E-003  2.961381370180852E-005 -0.130432930729527     
  1.838111179441275E-003  3.962935594986972E-005 -0.136814760079918     
  2.070262006998887E-003  4.011800815792756E-005 -0.139907960780884     
  2.304373857695917E-003  3.780345812188918E-005 -0.139464416582123     
  2.539516092125059E-003  3.530163871703418E-005 -0.135577675145177     
  2.774625736886740E-003  3.309575018368948E-005 -0.128705774930259     
  3.008694035952882E-003  3.075328134833618E-005 -0.120060829638487     
  3.250030648842378E-003 -4.421587827062308E-005 -0.120761891009648     
  3.252340805143388E-003 -1.128328541500218E-004 -0.123214629822185     
  3.253447268104598E-003 -1.813916001226934E-004 -0.120762962649851     
  3.016355237358849E-003 -2.524326713266435E-004 -0.120062125012487     
  2.782986222468614E-003 -2.506553637530566E-004 -0.128706745439946     
  2.548503759098221E-003 -2.484106537782208E-004 -0.135578561581170     
  2.313917868109288E-003 -2.461662754205115E-004 -0.139465393320807     
  2.080291485077102E-003 -2.434741676899652E-004 -0.139909133248714     
  1.848555295595747E-003 -2.377538492817539E-004 -0.136816183364019     
  1.616843647105002E-003 -2.223171355664067E-004 -0.130434618838802     
  1.370544645668192E-003 -1.871355183827424E-004 -0.121379398820639     
  1.058533158921142E-003 -1.397836635656130E-004 -0.111048216621256     
  3.484200191374208E-003  2.615014188184149E-005 -0.117072096845685     
  3.723782629173914E-003  2.656857216155952E-005 -0.122471700941738     
  3.962264692223300E-003  2.688520065553327E-005 -0.126183667003521     
  4.199400428466784E-003  2.735440775229291E-005 -0.127131111267805     
  4.432634831551724E-003  2.633467368260649E-005 -0.124960189800042     
  4.658799817865528E-003  1.474694658545429E-005 -0.119677977317012     
  4.884457551191905E-003 -3.182927477393598E-005 -0.111622871622395     
  5.162538657825535E-003 -1.509660909052024E-004 -0.101468080508937     
  5.680062124825290E-003 -3.162121076808384E-004 -9.065602779314318E-002
  5.112600065864236E-003 -1.513110943184383E-004 -9.150442265502620E-002
  4.963677416921697E-003 -1.181523579381587E-004 -9.429360904608602E-002
  5.110635243092811E-003 -8.490726709287064E-005 -9.151849872412447E-002
  5.677208500657976E-003  7.856805208107945E-005 -9.068183224128884E-002
  5.161065227564331E-003 -8.762718280037733E-005 -0.101491576280494     
  4.884269731929776E-003 -2.070644330604116E-004 -0.111643532395801     
  4.659829187275277E-003 -2.533207701382187E-004 -0.119695569367193     
  4.434813109942371E-003 -2.639968905574258E-004 -0.124974613013077     
  4.202659035592689E-003 -2.635476834351778E-004 -0.127142386780213     
  3.966534979943344E-003 -2.610865126497595E-004 -0.126191953590222     
  3.728995909446108E-003 -2.582889961618763E-004 -0.122477307795262     
  3.490286434588531E-003 -2.549347340845483E-004 -0.117075470843889     
  5.450068202696664E-003 -5.663040995166651E-005 -8.862867709278222E-002
  4.703588345702131E-003 -2.220444527564786E-004 -9.634617763497579E-002
  4.196329066541661E-003 -3.400980138166785E-004 -0.102163572861678     
  3.741152542943844E-003 -3.848652846191107E-004 -0.104139228113025     
  3.285414743581732E-003 -3.945585806307979E-004 -0.101045477468378     
  2.823495798222725E-003 -3.940145119525328E-004 -9.203690959956699E-002
  2.361186323535615E-003 -3.915222945185431E-004 -7.681249058611316E-002
  1.905905900168323E-003 -3.816645477456516E-004 -5.578325603883415E-002
  1.459140240339373E-003 -3.458008101493761E-004 -3.013253769053202E-002
  9.595283258875133E-004 -1.375592125166097E-004 -1.889842172958802E-003
  9.535960956290002E-004 -9.511354895370142E-005 -1.905833030650107E-003
  9.515831808777196E-004 -5.261939854274067E-005 -1.905532462797584E-003
  1.444767504445566E-003  1.485028562523514E-004 -3.016371746547428E-002
  1.892944630572016E-003  1.776472038986181E-004 -5.581434794125765E-002
  2.349568940689029E-003  1.814774600730441E-004 -7.684346715289106E-002
  2.813150982250757E-003  1.785960741563357E-004 -9.206774412161356E-002
  3.276268955768513E-003  1.743850019472582E-004 -0.101076119698194     
  3.733132341005713E-003  1.605176527338349E-004 -0.104169600980492     
  4.189361311724781E-003  1.121205963652388E-004 -0.102193575472640     
  4.697599934996835E-003 -9.049368028344497E-006 -9.637566114793986E-002
  5.444960039456857E-003 -1.770975983786442E-004 -8.865727373320827E-002
 -5.055193161702243E-003 -5.467224989712005E-005 -8.768551485166225E-002
 -4.289295761366978E-003  1.141014852340822E-004 -9.538199048552864E-002
 -3.765666566226753E-003  2.351639359601588E-004 -0.101181251351432     
 -3.294745987153668E-003  2.823076322882563E-004 -0.103141428452457     
 -2.823269152762382E-003  2.943380732003666E-004 -0.100034412335174     
 -2.345818017266867E-003  2.964680099011181E-004 -9.101429094409254E-002
 -1.868961806240344E-003  2.967022348772056E-004 -7.578004174159170E-002
 -1.401213048471482E-003  2.870636861281889E-004 -5.474396346372785E-002
 -9.429334337037139E-004  2.447003800757413E-004 -2.909295509754866E-002
 -4.284532373283685E-004  2.029007889990162E-005 -8.208518076399706E-004
 -4.270871789182779E-004  1.531863551134562E-008 -8.231731154633026E-004
 -4.284396082092094E-004 -2.025807886233774E-005 -8.208491594358239E-004
 -9.428129126790234E-004 -2.445944065919442E-004 -2.909294222503028E-002
 -1.401014334518193E-003 -2.868605337492174E-004 -5.474393950153562E-002
 -1.868695578856511E-003 -2.963652597462775E-004 -7.578000588503697E-002
 -2.345495055289557E-003 -2.959662309532800E-004 -9.101424137163580E-002
 -2.822900444053682E-003 -2.936458123953840E-004 -0.100034346475515     
 -3.294342516719835E-003 -2.814047675862105E-004 -0.103141342633676     
 -3.765239308333363E-003 -2.340358393889016E-004 -0.101181140231223     
 -4.288855685775851E-003 -1.127387972172599E-004 -9.538184572184151E-002
 -5.054752228640689E-003  5.627360435706952E-005 -8.768532494201869E-002
 -4.934534856707445E-003  2.438786673720777E-004 -9.420344970425470E-002
 -4.656281365486044E-003  1.036703693883805E-006 -9.617278247092727E-002
 -4.934320786807888E-003 -2.418071331174355E-004 -9.420326747622659E-002
 -4.780123588495840E-003  7.808406171604695E-005 -0.101838392262432     
 -4.706989160664268E-003  1.154789660875537E-006 -0.102408240473536     
 -4.779913393944722E-003 -7.577538341272514E-005 -0.101838128379471     
 -4.560759380514237E-003 -2.568319881688318E-005 -0.110705167984265     
 -4.558467065110840E-003  1.271000806590506E-006 -0.110654408735153     
 -4.560557207550501E-003  2.822360020994074E-005 -0.110704798402985     
 -4.326930633926767E-003 -6.307719230960892E-005 -0.118519765297977     
 -4.335441340018394E-003  1.381944263231999E-006 -0.118368784479713     
 -4.326741758534658E-003  6.583869051630255E-005 -0.118519277062878     
 -4.092179297208823E-003 -7.082589793245985E-005 -0.123841794227827     
 -4.097319122600740E-003  1.484899141611979E-006 -0.123695748581376     
 -4.092009061731124E-003  7.379250015484960E-005 -0.123841180479502     
 -3.858678457576127E-003 -7.032962488603144E-005 -0.126047654347991     
 -3.860421086906301E-003  1.577197849606881E-006 -0.125897861620578     
 -3.858532191973239E-003  7.348002602655104E-005 -0.126046912772297     
 -3.626000234199629E-003 -6.888051141739776E-005 -0.125358058696996     
 -3.626207600172836E-003  1.656179980694017E-006 -0.125284061733459     
 -3.625883264505070E-003  7.218807685935167E-005 -0.125357192048682     
 -3.393661124292379E-003 -6.764794078600257E-005 -0.122807014425015     
 -3.393554040275778E-003  1.719172807482902E-006 -0.123257798652621     
 -3.393578766176501E-003  7.108071773990381E-005 -0.122806030368060     
 -3.161496875253822E-003 -6.568352760617845E-005 -0.120258297191481     
 -3.162497540466494E-003  1.763543440980360E-006 -0.121971371601547     
 -3.161454417981113E-003  6.920417461951748E-005 -0.120257202314293     
 -2.701410980943307E-003 -6.707747964002615E-005 -0.123491461215215     
 -2.702307927932963E-003  1.786263084021415E-006 -0.125256130403288     
 -2.701464913131830E-003  7.064190087320044E-005 -0.123490229897310     
 -2.471190806237944E-003 -6.770325061395195E-005 -0.129269036363713     
 -2.471805548714240E-003  1.759187334892606E-006 -0.129762484233969     
 -2.471301002798852E-003  7.121278063928497E-005 -0.129267784980180     
 -2.241296586815452E-003 -6.770787961178827E-005 -0.134994998658679     
 -2.241423845492407E-003  1.702590977049349E-006 -0.134926262404465     
 -2.241468711642780E-003  7.110334633939380E-005 -0.134993741537568     
 -2.011394365662907E-003 -6.796727141222654E-005 -0.138676403662026     