# vtk DataFile Version 3.0
 Bridge                                                                         
  
ASCII
DATASET UNSTRUCTURED_GRID
 POINTS        4087 double
   200.000000000000       -10.0000000000000       0.000000000000000E+000
   200.000000000000        10.0000000000000       0.000000000000000E+000
   150.000000000000        10.0000000000000       0.000000000000000E+000
   150.000000000000       -10.0000000000000       0.000000000000000E+000
   100.000000000000        10.0000000000000       0.000000000000000E+000
   100.000000000000       -10.0000000000000       0.000000000000000E+000
   50.0000000000000        10.0000000000000       0.000000000000000E+000
   50.0000000000000       -10.0000000000000       0.000000000000000E+000
  0.000000000000000E+000   10.0000000000000       0.000000000000000E+000
  0.000000000000000E+000  -10.0000000000000       0.000000000000000E+000
  -50.0000000000000        10.0000000000000       0.000000000000000E+000
  -50.0000000000000       -10.0000000000000       0.000000000000000E+000
  -100.000000000000        10.0000000000000       0.000000000000000E+000
  -100.000000000000       -10.0000000000000       0.000000000000000E+000
  -150.000000000000        10.0000000000000       0.000000000000000E+000
  -150.000000000000       -10.0000000000000       0.000000000000000E+000
  -200.000000000000        10.0000000000000       0.000000000000000E+000
  -200.000000000000       -10.0000000000000       0.000000000000000E+000
  -250.000000000000        10.0000000000000       0.000000000000000E+000
  -250.000000000000       -10.0000000000000       0.000000000000000E+000
   250.000000000000       -10.0000000000000       0.000000000000000E+000
   250.000000000000        10.0000000000000       0.000000000000000E+000
   200.000000000000       -5.00000000000000       0.000000000000000E+000
   200.000000000000       0.000000000000000E+000  0.000000000000000E+000
   200.000000000000        5.00000000000000       0.000000000000000E+000
   195.000000000000        10.0000000000000       0.000000000000000E+000
   190.000000000000        10.0000000000000       0.000000000000000E+000
   185.000000000000        10.0000000000000       0.000000000000000E+000
   180.000000000000        10.0000000000000       0.000000000000000E+000
   175.000000000000        10.0000000000000       0.000000000000000E+000
   170.000000000000        10.0000000000000       0.000000000000000E+000
   165.000000000000        10.0000000000000       0.000000000000000E+000
   160.000000000000        10.0000000000000       0.000000000000000E+000
   155.000000000000        10.0000000000000       0.000000000000000E+000
   150.000000000000        5.00000000000000       0.000000000000000E+000
   150.000000000000       0.000000000000000E+000  0.000000000000000E+000
   150.000000000000       -5.00000000000000       0.000000000000000E+000
   155.000000000000       -10.0000000000000       0.000000000000000E+000
   160.000000000000       -10.0000000000000       0.000000000000000E+000
   165.000000000000       -10.0000000000000       0.000000000000000E+000
   170.000000000000       -10.0000000000000       0.000000000000000E+000
   175.000000000000       -10.0000000000000       0.000000000000000E+000
   180.000000000000       -10.0000000000000       0.000000000000000E+000
   185.000000000000       -10.0000000000000       0.000000000000000E+000
   190.000000000000       -10.0000000000000       0.000000000000000E+000
   195.000000000000       -10.0000000000000       0.000000000000000E+000
   145.000000000000        10.0000000000000       0.000000000000000E+000
   140.000000000000        10.0000000000000       0.000000000000000E+000
   135.000000000000        10.0000000000000       0.000000000000000E+000
   130.000000000000        10.0000000000000       0.000000000000000E+000
   125.000000000000        10.0000000000000       0.000000000000000E+000
   120.000000000000        10.0000000000000       0.000000000000000E+000
   115.000000000000        10.0000000000000       0.000000000000000E+000
   110.000000000000        10.0000000000000       0.000000000000000E+000
   105.000000000000        10.0000000000000       0.000000000000000E+000
   100.000000000000        5.00000000000000       0.000000000000000E+000
   100.000000000000       0.000000000000000E+000  0.000000000000000E+000
   100.000000000000       -5.00000000000000       0.000000000000000E+000
   105.000000000000       -10.0000000000000       0.000000000000000E+000
   110.000000000000       -10.0000000000000       0.000000000000000E+000
   115.000000000000       -10.0000000000000       0.000000000000000E+000
   120.000000000000       -10.0000000000000       0.000000000000000E+000
   125.000000000000       -10.0000000000000       0.000000000000000E+000
   130.000000000000       -10.0000000000000       0.000000000000000E+000
   135.000000000000       -10.0000000000000       0.000000000000000E+000
   140.000000000000       -10.0000000000000       0.000000000000000E+000
   145.000000000000       -10.0000000000000       0.000000000000000E+000
   95.0000000000000        10.0000000000000       0.000000000000000E+000
   90.0000000000000        10.0000000000000       0.000000000000000E+000
   85.0000000000000        10.0000000000000       0.000000000000000E+000
   80.0000000000000        10.0000000000000       0.000000000000000E+000
   75.0000000000000        10.0000000000000       0.000000000000000E+000
   70.0000000000000        10.0000000000000       0.000000000000000E+000
   65.0000000000000        10.0000000000000       0.000000000000000E+000
   60.0000000000000        10.0000000000000       0.000000000000000E+000
   55.0000000000000        10.0000000000000       0.000000000000000E+000
   50.0000000000000        5.00000000000000       0.000000000000000E+000
   50.0000000000000       0.000000000000000E+000  0.000000000000000E+000
   50.0000000000000       -5.00000000000000       0.000000000000000E+000
   55.0000000000000       -10.0000000000000       0.000000000000000E+000
   60.0000000000000       -10.0000000000000       0.000000000000000E+000
   65.0000000000000       -10.0000000000000       0.000000000000000E+000
   70.0000000000000       -10.0000000000000       0.000000000000000E+000
   75.0000000000000       -10.0000000000000       0.000000000000000E+000
   80.0000000000000       -10.0000000000000       0.000000000000000E+000
   85.0000000000000       -10.0000000000000       0.000000000000000E+000
   90.0000000000000       -10.0000000000000       0.000000000000000E+000
   95.0000000000000       -10.0000000000000       0.000000000000000E+000
   45.0000000000000        10.0000000000000       0.000000000000000E+000
   40.0000000000000        10.0000000000000       0.000000000000000E+000
   35.0000000000000        10.0000000000000       0.000000000000000E+000
   30.0000000000000        10.0000000000000       0.000000000000000E+000
   25.0000000000000        10.0000000000000       0.000000000000000E+000
   20.0000000000000        10.0000000000000       0.000000000000000E+000
   15.0000000000000        10.0000000000000       0.000000000000000E+000
   10.0000000000000        10.0000000000000       0.000000000000000E+000
   5.00000000000000        10.0000000000000       0.000000000000000E+000
  0.000000000000000E+000   5.00000000000000       0.000000000000000E+000
  0.000000000000000E+000  0.000000000000000E+000  0.000000000000000E+000
  0.000000000000000E+000  -5.00000000000000       0.000000000000000E+000
   5.00000000000000       -10.0000000000000       0.000000000000000E+000
   10.0000000000000       -10.0000000000000       0.000000000000000E+000
   15.0000000000000       -10.0000000000000       0.000000000000000E+000
   20.0000000000000       -10.0000000000000       0.000000000000000E+000
   25.0000000000000       -10.0000000000000       0.000000000000000E+000
   30.0000000000000       -10.0000000000000       0.000000000000000E+000
   35.0000000000000       -10.0000000000000       0.000000000000000E+000
   40.0000000000000       -10.0000000000000       0.000000000000000E+000
   45.0000000000000       -10.0000000000000       0.000000000000000E+000
  -5.00000000000000        10.0000000000000       0.000000000000000E+000
  -10.0000000000000        10.0000000000000       0.000000000000000E+000
  -15.0000000000000        10.0000000000000       0.000000000000000E+000
  -20.0000000000000        10.0000000000000       0.000000000000000E+000
  -25.0000000000000        10.0000000000000       0.000000000000000E+000
  -30.0000000000000        10.0000000000000       0.000000000000000E+000
  -35.0000000000000        10.0000000000000       0.000000000000000E+000
  -40.0000000000000        10.0000000000000       0.000000000000000E+000
  -45.0000000000000        10.0000000000000       0.000000000000000E+000
  -50.0000000000000        5.00000000000000       0.000000000000000E+000
  -50.0000000000000       0.000000000000000E+000  0.000000000000000E+000
  -50.0000000000000       -5.00000000000000       0.000000000000000E+000
  -45.0000000000000       -10.0000000000000       0.000000000000000E+000
  -40.0000000000000       -10.0000000000000       0.000000000000000E+000
  -35.0000000000000       -10.0000000000000       0.000000000000000E+000
  -30.0000000000000       -10.0000000000000       0.000000000000000E+000
  -25.0000000000000       -10.0000000000000       0.000000000000000E+000
  -20.0000000000000       -10.0000000000000       0.000000000000000E+000
  -15.0000000000000       -10.0000000000000       0.000000000000000E+000
  -10.0000000000000       -10.0000000000000       0.000000000000000E+000
  -5.00000000000000       -10.0000000000000       0.000000000000000E+000
  -55.0000000000000        10.0000000000000       0.000000000000000E+000
  -60.0000000000000        10.0000000000000       0.000000000000000E+000
  -65.0000000000000        10.0000000000000       0.000000000000000E+000
  -70.0000000000000        10.0000000000000       0.000000000000000E+000
[...]
 CELL_DATA        2884
 POINT_DATA        4087
 FIELD Result            2
 Displacement_Load_Case01            3        4087 double
 -6.573186353764296E-003  7.268962098185390E-005 -8.298598112353767E-002
 -6.572761037155852E-003 -7.085243571446110E-005 -8.298573826712835E-002
 -2.925322703397545E-003  1.335380912774623E-004 -0.113299736470996     
 -2.925329120542748E-003 -1.299943990428170E-004 -0.113302068640931     
 -2.840692509725082E-004  8.882190290071785E-005 -0.103767442360695     
 -2.825718283472409E-004 -8.840123590717571E-005 -0.103770009956430     
 -2.221526710993312E-004  8.151235689551706E-006 -6.538647191836711E-002
 -2.174138183017083E-004 -2.275222615765522E-005 -6.539185885255905E-002
  1.111628764027272E-004 -5.193507547460246E-005 -1.327075673654020E-002
  1.201015167834024E-004  3.521220608703799E-006 -1.327147504415619E-002
  4.618486312428048E-004 -3.826709725069840E-005 -6.546654226937008E-002
  4.754577070639985E-004 -7.080260568573886E-005 -6.546890062401942E-002
  5.331242764777774E-004  2.899337425439413E-006 -0.103963509280554     
  5.443790072222180E-004 -1.785533208328107E-004 -0.103965633392855     
  3.240608016006638E-003  2.257392102018142E-005 -0.113852616961965     
  3.247491667640403E-003 -2.480070874807699E-004 -0.113854513353450     
  6.939103029630463E-003 -1.832973359009532E-004 -8.390495941611333E-002
  6.934658428000549E-003 -5.266113964094564E-005 -8.393221090790270E-002
  9.861870000801140E-004 -1.983082355900254E-004 -1.825971936918731E-003
  9.703144849754869E-004  8.311837766478959E-006 -1.857177170082853E-003
 -4.469774233056198E-004  5.174004583314068E-005 -7.975294296896952E-004
 -4.469485004662687E-004 -5.170273853526317E-005 -7.975285187217570E-004
 -4.724039298644855E-003  3.734454436435898E-005 -9.057993199509552E-002
 -4.574063128399407E-003  9.186071300728727E-007 -9.336243169878324E-002
 -4.723821464154943E-003 -3.550735156711405E-005 -9.057980273088817E-002
 -5.307346220750427E-003 -2.044756704003655E-004 -8.976564793208917E-002
 -4.793019173026215E-003 -3.647050093709500E-005 -0.100610162985632     
 -4.521210427828177E-003  8.448725476636266E-005 -0.110799980009341     
 -4.302475623837110E-003  1.316163277776584E-004 -0.118892166975690     
 -4.083193605970112E-003  1.429941614662500E-004 -0.124212985565366     
 -3.856714528679044E-003  1.433813096965920E-004 -0.126423524740364     
 -3.626251784715760E-003  1.420085325466590E-004 -0.125516284751838     
 -3.394431389354430E-003  1.405851458501107E-004 -0.121844661358979     
 -3.161642116149959E-003  1.388532029226365E-004 -0.116484575432663     
 -2.931759191153727E-003  6.860784253333404E-005 -0.120209555125749     
 -2.932257074103944E-003  1.786764862631030E-006 -0.122662429226142     
 -2.931756199771501E-003 -6.504174478013203E-005 -0.120210747090407     
 -3.161739109811700E-003 -1.353516690795350E-004 -0.116486751645270     
 -3.394608323719032E-003 -1.371691505716981E-004 -0.121846633367406     
 -3.626497975003848E-003 -1.387153451676486E-004 -0.125518018972667     
 -3.857019310963370E-003 -1.402428939491014E-004 -0.126425007567253     
 -4.083546327597666E-003 -1.400371463025005E-004 -0.124214212958064     
 -4.302865635070700E-003 -1.288620196109716E-004 -0.118893143401150     
 -4.521627090603241E-003 -8.195163199180575E-005 -0.110800719989465     
 -4.793451841158880E-003  3.877656935083541E-005 -0.100610692209545     
 -5.307783246063522E-003  2.065464134757430E-004 -8.976600255150075E-002
 -2.698786615305846E-003  1.397448130332261E-004 -0.119543208019529     
 -2.470573157207677E-003  1.401107139168177E-004 -0.128228516759482     
 -2.241451313708250E-003  1.401103653031958E-004 -0.135141441669194     
 -2.012295003512230E-003  1.401726335497538E-004 -0.139068783677149     
 -1.784114742847242E-003  1.398672968554241E-004 -0.139551927151963     
 -1.557817875611069E-003  1.366653300992036E-004 -0.136496784304221     
 -1.331579965295976E-003  1.240106720960236E-004 -0.130150883781336     
 -1.091106839638408E-003  9.208309243096610E-005 -0.121128607273832     
 -7.863999016945719E-004  4.828179548075738E-005 -0.110826828307082     
 -7.724336786533428E-004  4.347591907037521E-005 -0.110607497493645     
 -8.116548409433111E-004  2.456777615486128E-007 -0.113117067468998     
 -7.716515728873615E-004 -4.300225831803604E-005 -0.110608834140431     
 -7.850902832873080E-004 -4.717488257634471E-005 -0.110829321030874     
 -1.089986601775568E-003 -9.038470273809788E-005 -0.121131060318265     
 -1.330640162178905E-003 -1.218148646765808E-004 -0.130153323905848     
 -1.557047187901276E-003 -1.340599798976310E-004 -0.136499236830198     
 -1.783501836580660E-003 -1.369341104679465E-004 -0.139554403937641     
 -2.011828572429412E-003 -1.369876728822928E-004 -0.139071284626481     
 -2.241120059081001E-003 -1.367440381493653E-004 -0.135143956421876     
 -2.470365791430440E-003 -1.366277924744124E-004 -0.128231023292546     
 -2.698691852157047E-003 -1.362044033835065E-004 -0.119545662254832     
 -5.174726584130350E-004  1.165112149531597E-004 -0.106717334566738     
 -5.511811581735500E-004  7.052560338409814E-005 -0.112156721902786     
 -5.209815549020403E-004  3.770717478938123E-005 -0.116142857477855     
 -4.770605411530809E-004  2.470677278885896E-005 -0.117395073741336     
 -4.334708215166603E-004  2.110568259521308E-005 -0.115342656509205     
 -3.919364434410060E-004  2.023985211751451E-005 -0.109776806069544     
 -3.516204513466923E-004  1.942378346222720E-005 -0.100840832602879     
 -3.115500764811230E-004  1.754558863715934E-005 -8.905437291309209E-002
 -2.699993983451866E-004  1.443696674614505E-005 -7.572805939703207E-002
 -2.340398999009993E-004  1.485886303212205E-006 -7.228541695245350E-002
 -2.339182557719054E-004 -7.244773398314412E-006 -7.473601019808110E-002
 -2.316619808939802E-004 -1.600335269339640E-005 -7.228806739188089E-002
 -2.656301350073283E-004 -2.677938808459079E-005 -7.573344398720820E-002
 -3.075407781724919E-004 -2.781032141373851E-005 -8.905959584121702E-002
 -3.479606337692153E-004 -2.778839734626562E-005 -0.100845796193849     
 -3.886153624321133E-004 -2.687644227835308E-005 -0.109781436666207     
 -4.304777084042304E-004 -2.618093189543592E-005 -0.115346910713103     
 -4.743846227271217E-004 -2.838197312689007E-005 -0.117398934472320     
 -5.186120312673856E-004 -4.013824630014512E-005 -0.116146331885385     
 -5.491072253877609E-004 -7.186254894003122E-005 -0.112159841032436     
 -5.156858676285765E-004 -1.168981510296300E-004 -0.106720139798110     
 -1.939515869690860E-004  1.393448640089344E-005 -6.468197160089546E-002
 -1.614216918241060E-004  1.237189429140079E-005 -6.607525901969458E-002
 -1.270143484915259E-004  1.038359991663357E-005 -6.603827389804730E-002
 -9.197936972909750E-005  8.547337643268404E-006 -6.360165239264723E-002
 -5.686409488981925E-005  6.949765020246985E-006 -5.848442327735821E-002
 -2.200178928341074E-005  5.507934560929612E-006 -5.077905104375773E-002
  1.202938135535024E-005  3.916501217351442E-006 -4.095747624127773E-002
  4.428566473327450E-005  2.384084159824518E-007 -2.987891225361332E-002
  7.503557865921529E-005 -8.043379539523762E-006 -1.916714820267763E-002
  1.166908329210458E-004 -3.112769497037594E-005 -1.981596773241830E-002
  1.192626865616259E-004 -2.417838474871516E-005 -2.237746345126320E-002
  1.212901387320593E-004 -1.724667058058552E-005 -1.981513843079865E-002
  8.358084551114373E-005 -3.608628356406864E-005 -1.916822029151989E-002
  5.238511598506772E-005 -4.020798740816302E-005 -2.988052548224427E-002
  1.967699394070130E-005 -3.996186297649482E-005 -4.095985977568459E-002
 -1.479782515839740E-005 -3.785516828217141E-005 -5.078208133720091E-002
 -5.009418734043038E-005 -3.581857585794848E-005 -5.848800288093781E-002
 -8.563409495141057E-005 -3.415235211332440E-005 -6.360572298611081E-002
 -1.210843181313505E-004 -3.293479158880632E-005 -6.604277790592525E-002
 -1.558974981863192E-004 -3.207447546267602E-005 -6.608013004463179E-002
 -1.888240338342666E-004 -3.098896815014342E-005 -6.468713906564871E-002
  1.521141717215058E-004 -1.310928399451639E-005 -1.915907858100667E-002
  1.850580513655069E-004 -8.892402984234433E-006 -2.987462657886979E-002
  2.186702424789637E-004 -9.497814156936458E-006 -4.096023641090292E-002
  2.538949140760525E-004 -1.249298526099775E-005 -5.079068440761989E-002
  2.899833013896074E-004 -1.578960255082619E-005 -5.850646648455252E-002
  3.263820348559124E-004 -1.897576999370316E-005 -6.363539064667330E-002
  3.627453160370007E-004 -2.191573994974230E-005 -6.608452613205923E-002
  3.985075940631158E-004 -2.466760250327783E-005 -6.613425630295373E-002
  4.323855759069583E-004 -2.779845482505368E-005 -6.475309574247114E-002
  4.786256351226969E-004 -4.536982153499046E-005 -7.236362567318164E-002
  4.831033404999789E-004 -5.451806809378655E-005 -7.481304933466669E-002
  4.853986317777422E-004 -6.367478739428565E-005 -7.236473270421068E-002
  4.458517313249059E-004 -7.439329796986523E-005 -6.475537170178540E-002
  4.117578681353228E-004 -7.073401846595929E-005 -6.613613988509899E-002
  3.757098790323823E-004 -6.682172607892600E-005 -6.608587158338203E-002
  3.389918497496917E-004 -6.325779967360291E-005 -6.363610512062544E-002
  3.021693596381585E-004 -6.013471565118390E-005 -5.850653430050491E-002
  2.655882426487729E-004 -5.735118094541779E-005 -5.079017168449092E-002
  2.298019963782582E-004 -5.453027411238430E-005 -4.095927109349981E-002
  1.955607304572717E-004 -4.961415205088462E-005 -2.987341665591537E-002
  1.619087701740478E-004 -4.020422765315742E-005 -1.915828408747177E-002
  5.114054247963993E-004 -3.660584176956876E-005 -7.581494831572162E-002
  5.545807060862966E-004 -3.799948002419355E-005 -8.914932156021113E-002
  5.962696585542704E-004 -4.054263406743822E-005 -0.100944167830221     
  6.382342192521372E-004 -4.405636851715853E-005 -0.109888996158428     
  6.814715277926605E-004 -4.739541946395323E-005 -0.115464543213082     
  7.268382940710827E-004 -4.780018033643632E-005 -0.117527954849907     
  7.725706418661410E-004 -3.844373716307437E-005 -0.116288492897272     
  8.042995263676263E-004 -8.668969681515519E-006 -0.112317259151063     
  7.707312562856703E-004  3.472910902400553E-005 -0.106895057239148     
  1.035476258701988E-003 -4.356808805744297E-005 -0.110804618610144     
  1.078873808052749E-003 -8.787738667508672E-005 -0.113314487485806     
  1.041279288032345E-003 -1.321614864245126E-004 -0.110805710585455     
  7.826488544865628E-004 -2.044514229995185E-004 -0.106897161279378     
  8.167055840445277E-004 -1.548426586240767E-004 -0.112319352449311     
  7.853755552236321E-004 -1.186480650923694E-004 -0.116290565754863     
  7.399713757950064E-004 -1.026939640888679E-004 -0.117530013458927     
  6.948621316223873E-004 -9.635448339988599E-005 -0.115466596685877     
  6.518114813248172E-004 -9.283822933009920E-005 -0.109891055577753     
  6.099626625633442E-004 -8.942105972591320E-005 -0.100946248052863     
  5.683185692246354E-004 -8.499299217677450E-005 -8.915143851377243E-002
  5.251165380635827E-004 -7.941044082172751E-005 -7.581713160510586E-002
  1.047287854909398E-003 -4.163378968219853E-005 -0.111046116431304     
  1.359483136686373E-003  1.164000586676950E-008 -0.121377469778877     
  1.606055506607851E-003  2.961381370243387E-005 -0.130432930729511     
  1.838111179441346E-003  3.962935595051046E-005 -0.136814760079899     
  2.070262006998927E-003  4.011800815857626E-005 -0.139907960780863     
  2.304373857695926E-003  3.780345812253707E-005 -0.139464416582104     
  2.539516092125038E-003  3.530163871767334E-005 -0.135577675145162     
  2.774625736886689E-003  3.309575018431229E-005 -0.128705774930247     
  3.008694035952805E-003  3.075328134893594E-005 -0.120060829638480     
  3.250030648842306E-003 -4.421587827004523E-005 -0.120761891009645     
  3.252340805143342E-003 -1.128328541494400E-004 -0.123214629822183     
  3.253447268104580E-003 -1.813916001221086E-004 -0.120762962649849     
  3.016355237358871E-003 -2.524326713260247E-004 -0.120062125012488     
  2.782986222468637E-003 -2.506553637524150E-004 -0.128706745439949     
  2.548503759098243E-003 -2.484106537775633E-004 -0.135578561581174     
  2.313917868109309E-003 -2.461662754198455E-004 -0.139465393320810     
  2.080291485077121E-003 -2.434741676892986E-004 -0.139909133248716     
  1.848555295595762E-003 -2.377538492810961E-004 -0.136816183364020     
  1.616843647105012E-003 -2.223171355657676E-004 -0.130434618838801     
  1.370544645668200E-003 -1.871355183821333E-004 -0.121379398820639     
  1.058533158921154E-003 -1.397836635650449E-004 -0.111048216621256     
  3.484200191374082E-003  2.615014188237872E-005 -0.117072096845683     
  3.723782629173767E-003  2.656857216206047E-005 -0.122471700941737     
  3.962264692223136E-003  2.688520065599718E-005 -0.126183667003520     
  4.199400428466602E-003  2.735440775272022E-005 -0.127131111267805     
  4.432634831551526E-003  2.633467368299659E-005 -0.124960189800040     
  4.658799817865317E-003  1.474694658581098E-005 -0.119677977317009     
  4.884457551191681E-003 -3.182927477361001E-005 -0.111622871622391     
  5.162538657825300E-003 -1.509660909049008E-004 -0.101468080508932     
  5.680062124825033E-003 -3.162121076805556E-004 -9.065602779313886E-002
  5.112600065864022E-003 -1.513110943181833E-004 -9.150442265501904E-002
  4.963677416921508E-003 -1.181523579379027E-004 -9.429360904607682E-002
  5.110635243092636E-003 -8.490726709261320E-005 -9.151849872411413E-002
  5.677208500657800E-003  7.856805208135087E-005 -9.068183224127668E-002
  5.161065227564196E-003 -8.762718280007252E-005 -0.101491576280479     
  4.884269731929670E-003 -2.070644330600701E-004 -0.111643532395785     
  4.659829187275192E-003 -2.533207701378414E-004 -0.119695569367176     
  4.434813109942307E-003 -2.639968905570125E-004 -0.124974613013060     
  4.202659035592645E-003 -2.635476834347282E-004 -0.127142386780198     
  3.966534979943316E-003 -2.610865126492739E-004 -0.126191953590209     
  3.728995909446096E-003 -2.582889961613556E-004 -0.122477307795253     
  3.490286434588536E-003 -2.549347340839937E-004 -0.117075470843883     
  5.450068202696409E-003 -5.663040995143694E-005 -8.862867709277544E-002
  4.703588345701898E-003 -2.220444527562646E-004 -9.634617763496536E-002
  4.196329066541441E-003 -3.400980138164859E-004 -0.102163572861664     
  3.741152542943639E-003 -3.848652846189451E-004 -0.104139228113009     
  3.285414743581544E-003 -3.945585806306615E-004 -0.101045477468361     
  2.823495798222557E-003 -3.940145119524256E-004 -9.203690959955106E-002
  2.361186323535468E-003 -3.915222945184634E-004 -7.681249058609964E-002
  1.905905900168199E-003 -3.816645477455963E-004 -5.578325603882421E-002
  1.459140240339275E-003 -3.458008101493420E-004 -3.013253769052671E-002
  9.595283258874531E-004 -1.375592125166000E-004 -1.889842172958747E-003
  9.535960956289474E-004 -9.511354895369329E-005 -1.905833030650058E-003
  9.515831808776735E-004 -5.261939854273341E-005 -1.905532462797538E-003
  1.444767504445522E-003  1.485028562523680E-004 -3.016371746546938E-002
  1.892944630571966E-003  1.776472038986536E-004 -5.581434794124830E-002
  2.349568940688969E-003  1.814774600731035E-004 -7.684346715287790E-002
  2.813150982250686E-003  1.785960741564221E-004 -9.206774412159738E-002
  3.276268955768428E-003  1.743850019473739E-004 -0.101076119698176     
  3.733132341005613E-003  1.605176527339812E-004 -0.104169600980474     
  4.189361311724663E-003  1.121205963654164E-004 -0.102193575472624     
  4.697599934996691E-003 -9.049368028133741E-006 -9.637566114792612E-002
  5.444960039456676E-003 -1.770975983784003E-004 -8.865727373319672E-002
 -5.055193161702359E-003 -5.467224989780048E-005 -8.768551485167417E-002
 -4.289295761367070E-003  1.141014852335504E-004 -9.538199048554112E-002
 -3.765666566226837E-003  2.351639359597559E-004 -0.101181251351445     
 -3.294745987153746E-003  2.823076322879607E-004 -0.103141428452471     
 -2.823269152762452E-003  2.943380732001593E-004 -0.100034412335187     
 -2.345818017266930E-003  2.964680099009824E-004 -9.101429094410431E-002
 -1.868961806240398E-003  2.967022348771257E-004 -7.578004174160130E-002
 -1.401213048471528E-003  2.870636861281481E-004 -5.474396346373461E-002
 -9.429334337037516E-004  2.447003800757221E-004 -2.909295509755213E-002
 -4.284532373283962E-004  2.029007889988102E-005 -8.208518076399919E-004
 -4.270871789183098E-004  1.531863548935494E-008 -8.231731154633231E-004
 -4.284396082092460E-004 -2.025807886236226E-005 -8.208491594358431E-004
 -9.428129126791353E-004 -2.445944065920040E-004 -2.909294222502865E-002
 -1.401014334518373E-003 -2.868605337493059E-004 -5.474393950153259E-002
 -1.868695578856759E-003 -2.963652597464071E-004 -7.578000588503284E-002
 -2.345495055289876E-003 -2.959662309534651E-004 -9.101424137163097E-002
 -2.822900444054072E-003 -2.936458123956402E-004 -0.100034346475510     
 -3.294342516720296E-003 -2.814047675865533E-004 -0.103141342633671     
 -3.765239308333895E-003 -2.340358393893444E-004 -0.101181140231220     
 -4.288855685776457E-003 -1.127387972178134E-004 -9.538184572184055E-002
 -5.054752228641386E-003  5.627360435639232E-005 -8.768532494202037E-002
 -4.934534856707687E-003  2.438786673710985E-004 -9.420344970426922E-002
 -4.656281365486434E-003  1.036703692889371E-006 -9.617278247094015E-002
 -4.934320786808465E-003 -2.418071331184507E-004 -9.420326747623717E-002
 -4.780123588496068E-003  7.808406171488187E-005 -0.101838392262451     
 -4.706989160664667E-003  1.154789659704724E-006 -0.102408240473552     
 -4.779913393945302E-003 -7.577538341390415E-005 -0.101838128379485     
 -4.560759380514449E-003 -2.568319881823658E-005 -0.110705167984288     
 -4.558467065111234E-003  1.271000805237921E-006 -0.110654408735173     
 -4.560557207551079E-003  2.822360020858776E-005 -0.110704798403003     
 -4.326930633926964E-003 -6.307719231115209E-005 -0.118519765298002     
 -4.335441340018778E-003  1.381944261692296E-006 -0.118368784479736     
 -4.326741758535230E-003  6.583869051476511E-005 -0.118519277062899     
 -4.092179297209004E-003 -7.082589793419588E-005 -0.123841794227853     
 -4.097319122601114E-003  1.484899139880069E-006 -0.123695748581400     
 -4.092009061731690E-003  7.379250015312043E-005 -0.123841180479526     
 -3.858678457576290E-003 -7.032962488796533E-005 -0.126047654348014     
 -3.860421086906663E-003  1.577197847677153E-006 -0.125897861620602     
 -3.858532191973798E-003  7.348002602462401E-005 -0.126046912772320     
 -3.626000234199777E-003 -6.888051141953429E-005 -0.125358058697016     
 -3.626207600173187E-003  1.656179978561452E-006 -0.125284061733480     
 -3.625883264505623E-003  7.218807685722171E-005 -0.125357192048703     
 -3.393661124292511E-003 -6.764794078834620E-005 -0.122807014425031     
 -3.393554040276117E-003  1.719172805142610E-006 -0.123257798652637     
 -3.393578766177049E-003  7.108071773756471E-005 -0.122806030368078     
 -3.161496875253938E-003 -6.568352760873243E-005 -0.120258297191492     
 -3.162497540466825E-003  1.763543438427044E-006 -0.121971371601559     
 -3.161454417981655E-003  6.920417461696487E-005 -0.120257202314306     
 -2.701410980943406E-003 -6.707747964302599E-005 -0.123491461215217     
 -2.702307927933277E-003  1.786263081025355E-006 -0.125256130403290     
 -2.701464913132356E-003  7.064190087020868E-005 -0.123490229897314     
 -2.471190806238037E-003 -6.770325061717636E-005 -0.129269036363710     
 -2.471805548714546E-003  1.759187331670661E-006 -0.129762484233968     
 -2.471301002799371E-003  7.121278063606588E-005 -0.129267784980181     
 -2.241296586815543E-003 -6.770787961523459E-005 -0.134994998658674     
 -2.241423845492708E-003  1.702590973603817E-006 -0.134926262404461     
 -2.241468711643290E-003  7.110334633595072E-005 -0.134993741537567     
 -2.011394365663000E-003 -6.796727141589029E-005 -0.138676403662020     