# vtk DataFile Version 3.0
 Bridge                                                                         
  
ASCII
DATASET UNSTRUCTURED_GRID
 POINTS        4087 double
   200.000000000000       -10.0000000000000       0.000000000000000E+000
   200.000000000000        10.0000000000000       0.000000000000000E+000
   150.000000000000        10.0000000000000       0.000000000000000E+000
   150.000000000000       -10.0000000000000       0.000000000000000E+000
   100.000000000000        10.0000000000000       0.000000000000000E+000
   100.000000000000       -10.0000000000000       0.000000000000000E+000
   50.0000000000000        10.0000000000000       0.000000000000000E+000
   50.0000000000000       -10.0000000000000       0.000000000000000E+000
  0.000000000000000E+000   10.0000000000000       0.000000000000000E+000
  0.000000000000000E+000  -10.0000000000000       0.000000000000000E+000
  -50.0000000000000        10.0000000000000       0.000000000000000E+000
  -50.0000000000000       -10.0000000000000       0.000000000000000E+000
  -100.000000000000        10.0000000000000       0.000000000000000E+000
  -100.000000000000       -10.0000000000000       0.000000000000000E+000
  -150.000000000000        10.0000000000000       0.000000000000000E+000
  -150.000000000000       -10.0000000000000       0.000000000000000E+000
  -200.000000000000        10.0000000000000       0.000000000000000E+000
  -200.000000000000       -10.0000000000000       0.000000000000000E+000
  -250.000000000000        10.0000000000000       0.000000000000000E+000
  -250.000000000000       -10.0000000000000       0.000000000000000E+000
   250.000000000000       -10.0000000000000       0.000000000000000E+000
   250.000000000000        10.0000000000000       0.000000000000000E+000
   200.000000000000       -5.00000000000000       0.000000000000000E+000
   200.000000000000       0.000000000000000E+000  0.000000000000000E+000
   200.000000000000        5.00000000000000       0.000000000000000E+000
   195.000000000000        10.0000000000000       0.000000000000000E+000
   190.000000000000        10.0000000000000       0.000000000000000E+000
   185.000000000000        10.0000000000000       0.000000000000000E+000
   180.000000000000        10.0000000000000       0.000000000000000E+000
   175.000000000000        10.0000000000000       0.000000000000000E+000
   170.000000000000        10.0000000000000       0.000000000000000E+000
   165.000000000000        10.0000000000000       0.000000000000000E+000
   160.000000000000        10.0000000000000       0.000000000000000E+000
   155.000000000000        10.0000000000000       0.000000000000000E+000
   150.000000000000        5.00000000000000       0.000000000000000E+000
   150.000000000000       0.000000000000000E+000  0.000000000000000E+000
   150.000000000000       -5.00000000000000       0.000000000000000E+000
   155.000000000000       -10.0000000000000       0.000000000000000E+000
   160.000000000000       -10.0000000000000       0.000000000000000E+000
   165.000000000000       -10.0000000000000       0.000000000000000E+000
   170.000000000000       -10.0000000000000       0.000000000000000E+000
   175.000000000000       -10.0000000000000       0.000000000000000E+000
   180.000000000000       -10.0000000000000       0.000000000000000E+000
   185.000000000000       -10.0000000000000       0.000000000000000E+000
   190.000000000000       -10.0000000000000       0.000000000000000E+000
   195.000000000000       -10.0000000000000       0.000000000000000E+000
   145.000000000000        10.0000000000000       0.000000000000000E+000
   140.000000000000        10.0000000000000       0.000000000000000E+000
   135.000000000000        10.0000000000000       0.000000000000000E+000
   130.000000000000        10.0000000000000       0.000000000000000E+000
   125.000000000000        10.0000000000000       0.000000000000000E+000
   120.000000000000        10.0000000000000       0.000000000000000E+000
   115.000000000000        10.0000000000000       0.000000000000000E+000
   110.000000000000        10.0000000000000       0.000000000000000E+000
   105.000000000000        10.0000000000000       0.000000000000000E+000
   100.000000000000        5.00000000000000       0.000000000000000E+000
   100.000000000000       0.000000000000000E+000  0.000000000000000E+000
   100.000000000000       -5.00000000000000       0.000000000000000E+000
   105.000000000000       -10.0000000000000       0.000000000000000E+000
   110.000000000000       -10.0000000000000       0.000000000000000E+000
   115.000000000000       -10.0000000000000       0.000000000000000E+000
   120.000000000000       -10.0000000000000       0.000000000000000E+000
   125.000000000000       -10.0000000000000       0.000000000000000E+000
   130.000000000000       -10.0000000000000       0.000000000000000E+000
   135.000000000000       -10.0000000000000       0.000000000000000E+000
   140.000000000000       -10.0000000000000       0.000000000000000E+000
   145.000000000000       -10.0000000000000       0.000000000000000E+000
   95.0000000000000        10.0000000000000       0.000000000000000E+000
   90.0000000000000        10.0000000000000       0.000000000000000E+000
   85.0000000000000        10.0000000000000       0.000000000000000E+000
   80.0000000000000        10.0000000000000       0.000000000000000E+000
   75.0000000000000        10.0000000000000       0.000000000000000E+000
   70.0000000000000        10.0000000000000       0.000000000000000E+000
   65.0000000000000        10.0000000000000       0.000000000000000E+000
   60.0000000000000        10.0000000000000       0.000000000000000E+000
   55.0000000000000        10.0000000000000       0.000000000000000E+000
   50.0000000000000        5.00000000000000       0.000000000000000E+000
   50.0000000000000       0.000000000000000E+000  0.000000000000000E+000
   50.0000000000000       -5.00000000000000       0.000000000000000E+000
   55.0000000000000       -10.0000000000000       0.000000000000000E+000
   60.0000000000000       -10.0000000000000       0.000000000000000E+000
   65.0000000000000       -10.0000000000000       0.000000000000000E+000
   70.0000000000000       -10.0000000000000       0.000000000000000E+000
   75.0000000000000       -10.0000000000000       0.000000000000000E+000
   80.0000000000000       -10.0000000000000       0.000000000000000E+000
   85.0000000000000       -10.0000000000000       0.000000000000000E+000
   90.0000000000000       -10.0000000000000       0.000000000000000E+000
   95.0000000000000       -10.0000000000000       0.000000000000000E+000
   45.0000000000000        10.0000000000000       0.000000000000000E+000
   40.0000000000000        10.0000000000000       0.000000000000000E+000
   35.0000000000000        10.0000000000000       0.000000000000000E+000
   30.0000000000000        10.0000000000000       0.000000000000000E+000
   25.0000000000000        10.0000000000000       0.000000000000000E+000
   20.0000000000000        10.0000000000000       0.000000000000000E+000
   15.0000000000000        10.0000000000000       0.000000000000000E+000
   10.0000000000000        10.0000000000000       0.000000000000000E+000
   5.00000000000000        10.0000000000000       0.000000000000000E+000
  0.000000000000000E+000   5.00000000000000       0.000000000000000E+000
  0.000000000000000E+000  0.000000000000000E+000  0.000000000000000E+000
  0.000000000000000E+000  -5.00000000000000       0.000000000000000E+000
   5.00000000000000       -10.0000000000000       0.000000000000000E+000
   10.0000000000000       -10.0000000000000       0.000000000000000E+000
   15.0000000000000       -10.0000000000000       0.000000000000000E+000
   20.0000000000000       -10.0000000000000       0.000000000000000E+000
   25.0000000000000       -10.0000000000000       0.000000000000000E+000
   30.0000000000000       -10.0000000000000       0.000000000000000E+000
   35.0000000000000       -10.0000000000000       0.000000000000000E+000
   40.0000000000000       -10.0000000000000       0.000000000000000E+000
   45.0000000000000       -10.0000000000000       0.000000000000000E+000
  -5.00000000000000        10.0000000000000       0.000000000000000E+000
  -10.0000000000000        10.0000000000000       0.000000000000000E+000
  -15.0000000000000        10.0000000000000       0.000000000000000E+000
  -20.0000000000000        10.0000000000000       0.000000000000000E+000
  -25.0000000000000        10.0000000000000       0.000000000000000E+000
  -30.0000000000000        10.0000000000000       0.000000000000000E+000
  -35.0000000000000        10.0000000000000       0.000000000000000E+000
  -40.0000000000000        10.0000000000000       0.000000000000000E+000
  -45.0000000000000        10.0000000000000       0.000000000000000E+000
  -50.0000000000000        5.00000000000000       0.000000000000000E+000
  -50.0000000000000       0.000000000000000E+000  0.000000000000000E+000
  -50.0000000000000       -5.00000000000000       0.000000000000000E+000
  -45.0000000000000       -10.0000000000000       0.000000000000000E+000
  -40.0000000000000       -10.0000000000000       0.000000000000000E+000
  -35.0000000000000       -10.0000000000000       0.000000000000000E+000
  -30.0000000000000       -10.0000000000000       0.000000000000000E+000
  -25.0000000000000       -10.0000000000000       0.000000000000000E+000
  -20.0000000000000       -10.0000000000000       0.000000000000000E+000
  -15.0000000000000       -10.0000000000000       0.000000000000000E+000
  -10.0000000000000       -10.0000000000000       0.000000000000000E+000
  -5.00000000000000       -10.0000000000000       0.000000000000000E+000
  -55.0000000000000        10.0000000000000       0.000000000000000E+000
  -60.0000000000000        10.0000000000000       0.000000000000000E+000
  -65.0000000000000        10.0000000000000       0.000000000000000E+000
  -70.0000000000000        10.0000000000000       0.000000000000000E+000
[...]
 CELL_DATA        2884
 POINT_DATA        4087
 FIELD Result            2
 Displacement_Load_Case01            3        4087 double
 -6.573186353764396E-003  7.268962098211361E-005 -8.298598112353592E-002
 -6.572761037155799E-003 -7.085243571419177E-005 -8.298573826713258E-002
 -2.925322703397095E-003  1.335380912783895E-004 -0.113299736471000     
 -2.925329120542680E-003 -1.299943990419134E-004 -0.113302068640936     
 -2.840692509716507E-004  8.882190290281674E-005 -0.103767442360702     
 -2.825718283468586E-004 -8.840123590508050E-005 -0.103770009956437     
 -2.221526710987065E-004  8.151235692778971E-006 -6.538647191836534E-002
 -2.174138183013936E-004 -2.275222615442333E-005 -6.539185885255996E-002
  1.111628764030138E-004 -5.193507547111083E-005 -1.327075673653830E-002
  1.201015167838216E-004  3.521220612168582E-006 -1.327147504415612E-002
  4.618486312432207E-004 -3.826709724733612E-005 -6.546654226937097E-002
  4.754577070643812E-004 -7.080260568237397E-005 -6.546890062402023E-002
  5.331242764783846E-004  2.899337429245218E-006 -0.103963509280557     
  5.443790072225195E-004 -1.785533208289955E-004 -0.103965633392856     
  3.240608016006788E-003  2.257392102367677E-005 -0.113852616961962     
  3.247491667641029E-003 -2.480070874772677E-004 -0.113854513353456     
  6.939103029630247E-003 -1.832973358995185E-004 -8.390495941611439E-002
  6.934658428001589E-003 -5.266113963949263E-005 -8.393221090791396E-002
  9.861870000801628E-004 -1.983082355900534E-004 -1.825971936918768E-003
  9.703144849755938E-004  8.311837766462592E-006 -1.857177170082934E-003
 -4.469774233056208E-004  5.174004583315242E-005 -7.975294296896918E-004
 -4.469485004662616E-004 -5.170273853525059E-005 -7.975285187217585E-004
 -4.724039298644862E-003  3.734454436461824E-005 -9.057993199509520E-002
 -4.574063128399368E-003  9.186071303341987E-007 -9.336243169878448E-002
 -4.723821464154869E-003 -3.550735156684935E-005 -9.057980273089099E-002
 -5.307346220750307E-003 -2.044756704000573E-004 -8.976564793209393E-002
 -4.793019173026053E-003 -3.647050093673429E-005 -0.100610162985635     
 -4.521210427827979E-003  8.448725476677875E-005 -0.110799980009342     
 -4.302475623836878E-003  1.316163277781328E-004 -0.118892166975690     
 -4.083193605969844E-003  1.429941614667859E-004 -0.124212985565365     
 -3.856714528678739E-003  1.433813096971955E-004 -0.126423524740361     
 -3.626251784715420E-003  1.420085325473360E-004 -0.125516284751835     
 -3.394431389354051E-003  1.405851458508671E-004 -0.121844661358977     
 -3.161642116149543E-003  1.388532029234788E-004 -0.116484575432664     
 -2.931759191153366E-003  6.860784253425629E-005 -0.120209555125752     
 -2.932257074103678E-003  1.786764863546438E-006 -0.122662429226145     
 -2.931756199771332E-003 -6.504174477922309E-005 -0.120210747090411     
 -3.161739109811641E-003 -1.353516690787248E-004 -0.116486751645272     
 -3.394608323718985E-003 -1.371691505709732E-004 -0.121846633367404     
 -3.626497975003813E-003 -1.387153451670025E-004 -0.125518018972661     
 -3.857019310963348E-003 -1.402428939485281E-004 -0.126425007567245     
 -4.083546327597656E-003 -1.400371463019939E-004 -0.124214212958055     
 -4.302865635070705E-003 -1.288620196105261E-004 -0.118893143401140     
 -4.521627090603259E-003 -8.195163199141545E-005 -0.110800719989455     
 -4.793451841158913E-003  3.877656935117835E-005 -0.100610692209538     
 -5.307783246063577E-003  2.065464134760447E-004 -8.976600255149633E-002
 -2.698786615305350E-003  1.397448130342619E-004 -0.119543208019535     
 -2.470573157207141E-003  1.401107139179625E-004 -0.128228516759490     
 -2.241451313707676E-003  1.401103653044544E-004 -0.135141441669204     
 -2.012295003511621E-003  1.401726335511292E-004 -0.139068783677162     
 -1.784114742846598E-003  1.398672968569192E-004 -0.139551927151979     
 -1.557817875610393E-003  1.366653301008205E-004 -0.136496784304238     
 -1.331579965295269E-003  1.240106720977622E-004 -0.130150883781353     
 -1.091106839637670E-003  9.208309243282331E-005 -0.121128607273847     
 -7.863999016937926E-004  4.828179548273039E-005 -0.110826828307094     
 -7.724336786526978E-004  4.347591907247461E-005 -0.110607497493653     
 -8.116548409427952E-004  2.456777636466436E-007 -0.113117067469007     
 -7.716515728869588E-004 -4.300225831593980E-005 -0.110608834140439     
 -7.850902832870134E-004 -4.717488257436918E-005 -0.110829321030882     
 -1.089986601775319E-003 -9.038470273625655E-005 -0.121131060318274     
 -1.330640162178685E-003 -1.218148646748710E-004 -0.130153323905858     
 -1.557047187901081E-003 -1.340599798960477E-004 -0.136499236830209     
 -1.783501836580490E-003 -1.369341104664863E-004 -0.139554403937652     
 -2.011828572429265E-003 -1.369876728809528E-004 -0.139071284626493     
 -2.241120059080875E-003 -1.367440381481418E-004 -0.135143956421887     
 -2.470365791430334E-003 -1.366277924733009E-004 -0.128231023292555     
 -2.698691852156960E-003 -1.362044033825015E-004 -0.119545662254839     
 -5.174726584122345E-004  1.165112149553941E-004 -0.106717334566743     
 -5.511811581727723E-004  7.052560338644991E-005 -0.112156721902791     
 -5.209815549012756E-004  3.770717479185178E-005 -0.116142857477859     
 -4.770605411523288E-004  2.470677279145011E-005 -0.117395073741340     
 -4.334708215159232E-004  2.110568259792361E-005 -0.115342656509207     
 -3.919364434402868E-004  2.023985212034072E-005 -0.109776806069544     
 -3.516204513459935E-004  1.942378346516361E-005 -0.100840832602878     
 -3.115500764804469E-004  1.754558864019920E-005 -8.905437291309075E-002
 -2.699993983445352E-004  1.443696674928058E-005 -7.572805939703034E-002
 -2.340398999004556E-004  1.485886306441796E-006 -7.228541695245222E-002
 -2.339182557714388E-004 -7.244773395082605E-006 -7.473601019808021E-002
 -2.316619808935902E-004 -1.600335269016367E-005 -7.228806739188071E-002
 -2.656301350070264E-004 -2.677938808144517E-005 -7.573344398721089E-002
 -3.075407781721993E-004 -2.781032141068817E-005 -8.905959584122160E-002
 -3.479606337689293E-004 -2.778839734331884E-005 -0.100845796193855     
 -3.886153624318313E-004 -2.687644227551653E-005 -0.109781436666215     
 -4.304777084039502E-004 -2.618093189271514E-005 -0.115346910713112     
 -4.743846227268410E-004 -2.838197312428991E-005 -0.117398934472329     
 -5.186120312671020E-004 -4.013824629767045E-005 -0.116146331885394     
 -5.491072253874691E-004 -7.186254893768759E-005 -0.112159841032444     
 -5.156858676282607E-004 -1.168981510274202E-004 -0.106720139798117     
 -1.939515869684933E-004  1.393448640418829E-005 -6.468197160089360E-002
 -1.614216918235437E-004  1.237189429475723E-005 -6.607525901969262E-002
 -1.270143484909939E-004  1.038359992004142E-005 -6.603827389804537E-002
 -9.197936972859586E-005  8.547337646717388E-006 -6.360165239264556E-002
 -5.686409488934817E-005  6.949765023726590E-006 -5.848442327735684E-002
 -2.200178928297015E-005  5.507934564429341E-006 -5.077905104375662E-002
  1.202938135576044E-005  3.916501220861203E-006 -4.095747624127680E-002
  4.428566473365382E-005  2.384084194936123E-007 -2.987891225361232E-002
  7.503557865955875E-005 -8.043379536019352E-006 -1.916714820267632E-002
  1.166908329214093E-004 -3.112769496689197E-005 -1.981596773241656E-002
  1.192626865620123E-004 -2.417838474523531E-005 -2.237746345126170E-002
  1.212901387324635E-004 -1.724667057711064E-005 -1.981513843079778E-002
  8.358084551156140E-005 -3.608628356056937E-005 -1.916822029151871E-002
  5.238511598547551E-005 -4.020798740464725E-005 -2.988052548224147E-002
  1.967699394109672E-005 -3.996186297297516E-005 -4.095985977568004E-002
 -1.479782515801457E-005 -3.785516827866030E-005 -5.078208133719479E-002
 -5.009418734005976E-005 -3.581857585445728E-005 -5.848800288093063E-002
 -8.563409495105186E-005 -3.415235210986390E-005 -6.360572298610351E-002
 -1.210843181310035E-004 -3.293479158538717E-005 -6.604277790591907E-002
 -1.558974981859839E-004 -3.207447545930897E-005 -6.608013004462771E-002
 -1.888240338339423E-004 -3.098896814683927E-005 -6.468713906564727E-002
  1.521141717218250E-004 -1.310928399106908E-005 -1.915907858100368E-002
  1.850580513658424E-004 -8.892402980810109E-006 -2.987462657886532E-002
  2.186702424793101E-004 -9.497814153531507E-006 -4.096023641089693E-002
  2.538949140764088E-004 -1.249298525760940E-005 -5.079068440761275E-002
  2.899833013899736E-004 -1.578960254745133E-005 -5.850646648454483E-002
  3.263820348562889E-004 -1.897576999033807E-005 -6.363539064666592E-002
  3.627453160373876E-004 -2.191573994638306E-005 -6.608452613205300E-002
  3.985075940635135E-004 -2.466760249992036E-005 -6.613425630294947E-002
  4.323855759073660E-004 -2.779845482169383E-005 -6.475309574246946E-002
  4.786256351231107E-004 -4.536982153162851E-005 -7.236362567318232E-002
  4.831033405003815E-004 -5.451806809042494E-005 -7.481304933466740E-002
  4.853986317781332E-004 -6.367478739092327E-005 -7.236473270421147E-002
  4.458517313252947E-004 -7.439329796650847E-005 -6.475537170178419E-002
  4.117578681357179E-004 -7.073401846260530E-005 -6.613613988509637E-002
  3.757098790327836E-004 -6.682172607557017E-005 -6.608587158337864E-002
  3.389918497500986E-004 -6.325779967024100E-005 -6.363610512062201E-002
  3.021693596385707E-004 -6.013471564781199E-005 -5.850653430050184E-002
  2.655882426491902E-004 -5.735118094203179E-005 -5.079017168448838E-002
  2.298019963786802E-004 -5.453027410898002E-005 -4.095927109349809E-002
  1.955607304576966E-004 -4.961415204745814E-005 -2.987341665591459E-002
  1.619087701744722E-004 -4.020422764970647E-005 -1.915828408747174E-002
  5.114054247968387E-004 -3.660584176618820E-005 -7.581494831572469E-002
  5.545807060867555E-004 -3.799948002078955E-005 -8.914932156021646E-002
  5.962696585547475E-004 -4.054263406400388E-005 -0.100944167830228     
  6.382342192526315E-004 -4.405636851368722E-005 -0.109888996158437     
  6.814715277931710E-004 -4.739541946043839E-005 -0.115464543213092     
  7.268382940716080E-004 -4.780018033287234E-005 -0.117527954849917     
  7.725706418666802E-004 -3.844373715945641E-005 -0.116288492897281     
  8.042995263681792E-004 -8.668969677839942E-006 -0.112317259151071     
  7.707312562862407E-004  3.472910902774139E-005 -0.106895057239153     
  1.035476258702475E-003 -4.356808805363280E-005 -0.110804618610148     
  1.078873808053180E-003 -8.787738667127415E-005 -0.113314487485810     
  1.041279288032724E-003 -1.321614864206989E-004 -0.110805710585457     
  7.826488544868686E-004 -2.044514229957775E-004 -0.106897161279379     
  8.167055840448377E-004 -1.548426586204013E-004 -0.112319352449313     
  7.853755552239479E-004 -1.186480650887548E-004 -0.116290565754867     
  7.399713757953287E-004 -1.026939640853086E-004 -0.117530013458933     
  6.948621316227174E-004 -9.635448339637606E-005 -0.115466596685883     
  6.518114813251557E-004 -9.283822932663248E-005 -0.109891055577760     
  6.099626625636923E-004 -8.942105972248318E-005 -0.100946248052870     
  5.683185692249941E-004 -8.499299217337421E-005 -8.915143851377763E-002
  5.251165380639532E-004 -7.941044081834934E-005 -7.581713160510900E-002
  1.047287854909933E-003 -4.163378967833137E-005 -0.111046116431309     
  1.359483136686857E-003  1.164000976721047E-008 -0.121377469778884     
  1.606055506608289E-003  2.961381370634838E-005 -0.130432930729521     
  1.838111179441741E-003  3.962935595442042E-005 -0.136814760079911     
  2.070262006999279E-003  4.011800816246244E-005 -0.139907960780876     
  2.304373857696237E-003  3.780345812638111E-005 -0.139464416582115     
  2.539516092125307E-003  3.530163872145722E-005 -0.135577675145170     
  2.774625736886920E-003  3.309575018801819E-005 -0.128705774930252     
  3.008694035952995E-003  3.075328135254697E-005 -0.120060829638480     
  3.250030648842580E-003 -4.421587826653858E-005 -0.120761891009644     
  3.252340805143735E-003 -1.128328541459288E-004 -0.123214629822184     
  3.253447268105092E-003 -1.813916001185988E-004 -0.120762962649853     
  3.016355237359472E-003 -2.524326713224096E-004 -0.120062125012494     
  2.782986222469208E-003 -2.506553637487038E-004 -0.128706745439955     
  2.548503759098784E-003 -2.484106537737739E-004 -0.135578561581180     
  2.313917868109818E-003 -2.461662754159961E-004 -0.139465393320817     
  2.080291485077598E-003 -2.434741676854071E-004 -0.139909133248724     
  1.848555295596205E-003 -2.377538492771812E-004 -0.136816183364027     
  1.616843647105422E-003 -2.223171355618489E-004 -0.130434618838808     
  1.370544645668575E-003 -1.871355183782309E-004 -0.121379398820643     
  1.058533158921494E-003 -1.397836635611787E-004 -0.111048216621258     
  3.484200191374198E-003  2.615014188574975E-005 -0.117072096845677     
  3.723782629173849E-003  2.656857216528805E-005 -0.122471700941730     
  3.962264692223181E-003  2.688520065906453E-005 -0.126183667003512     
  4.199400428466610E-003  2.735440775560888E-005 -0.127131111267797     
  4.432634831551496E-003  2.633467368569026E-005 -0.124960189800033     
  4.658799817865248E-003  1.474694658829111E-005 -0.119677977317003     
  4.884457551191572E-003 -3.182927477136217E-005 -0.111622871622388     
  5.162538657825151E-003 -1.509660909029059E-004 -0.101468080508931     
  5.680062124824847E-003 -3.162121076788328E-004 -9.065602779313904E-002
  5.112600065864100E-003 -1.513110943167452E-004 -9.150442265502327E-002
  4.963677416921849E-003 -1.181523579364604E-004 -9.429360904608390E-002
  5.110635243093252E-003 -8.490726709116600E-005 -9.151849872412358E-002
  5.677208500658741E-003  7.856805208310154E-005 -9.068183224128883E-002
  5.161065227565088E-003 -8.762718279806148E-005 -0.101491576280492     
  4.884269731930525E-003 -2.070644330578148E-004 -0.111643532395798     
  4.659829187276012E-003 -2.533207701353570E-004 -0.119695569367188     
  4.434813109943096E-003 -2.639968905543160E-004 -0.124974613013071     
  4.202659035593402E-003 -2.635476834318367E-004 -0.127142386780207     
  3.966534979944042E-003 -2.610865126462043E-004 -0.126191953590217     
  3.728995909446790E-003 -2.582889961581248E-004 -0.122477307795260     
  3.490286434589197E-003 -2.549347340806179E-004 -0.117075470843889     
  5.450068202696217E-003 -5.663040995027905E-005 -8.862867709277816E-002
  4.703588345701734E-003 -2.220444527553582E-004 -9.634617763497035E-002
  4.196329066541311E-003 -3.400980138157996E-004 -0.102163572861671     
  3.741152542943541E-003 -3.848652846184462E-004 -0.104139228113018     
  3.285414743581475E-003 -3.945585806303197E-004 -0.101045477468370     
  2.823495798222515E-003 -3.940145119522125E-004 -9.203690959955992E-002
  2.361186323535451E-003 -3.915222945183515E-004 -7.681249058610735E-002
  1.905905900168207E-003 -3.816645477455581E-004 -5.578325603882989E-002
  1.459140240339305E-003 -3.458008101493498E-004 -3.013253769052968E-002
  9.595283258875146E-004 -1.375592125166290E-004 -1.889842172958796E-003
  9.535960956290238E-004 -9.511354895372110E-005 -1.905833030650120E-003
  9.515831808777652E-004 -5.261939854275783E-005 -1.905532462797610E-003
  1.444767504445707E-003  1.485028562523903E-004 -3.016371746547461E-002
  1.892944630572229E-003  1.776472038987263E-004 -5.581434794125807E-002
  2.349568940689314E-003  1.814774600732510E-004 -7.684346715289114E-002
  2.813150982251114E-003  1.785960741566705E-004 -9.206774412161300E-002
  3.276268955768939E-003  1.743850019477505E-004 -0.101076119698193     
  3.733132341006210E-003  1.605176527345137E-004 -0.104169600980491     
  4.189361311725348E-003  1.121205963661333E-004 -0.102193575472640     
  4.697599934997469E-003 -9.049368027204971E-006 -9.637566114793991E-002
  5.444960039457559E-003 -1.770975983772322E-004 -8.865727373320886E-002
 -5.055193161702426E-003 -5.467224989758737E-005 -8.768551485167450E-002
 -4.289295761367124E-003  1.141014852337307E-004 -9.538199048554304E-002
 -3.765666566226885E-003  2.351639359599045E-004 -0.101181251351448     
 -3.294745987153789E-003  2.823076322880782E-004 -0.103141428452474     
 -2.823269152762491E-003  2.943380732002483E-004 -0.100034412335189     
 -2.345818017266962E-003  2.964680099010467E-004 -9.101429094410639E-002
 -1.868961806240423E-003  2.967022348771698E-004 -7.578004174160265E-002
 -1.401213048471545E-003  2.870636861281771E-004 -5.474396346373533E-002
 -9.429334337037607E-004  2.447003800757405E-004 -2.909295509755243E-002
 -4.284532373283955E-004  2.029007889989234E-005 -8.208518076399904E-004
 -4.270871789183066E-004  1.531863550070747E-008 -8.231731154633209E-004
 -4.284396082092408E-004 -2.025807886235062E-005 -8.208491594358426E-004
 -9.428129126791159E-004 -2.445944065919837E-004 -2.909294222502904E-002
 -1.401014334518341E-003 -2.868605337492748E-004 -5.474393950153324E-002
 -1.868695578856717E-003 -2.963652597463604E-004 -7.578000588503357E-002
 -2.345495055289823E-003 -2.959662309533981E-004 -9.101424137163171E-002
 -2.822900444054009E-003 -2.936458123955488E-004 -0.100034346475511     
 -3.294342516720224E-003 -2.814047675864333E-004 -0.103141342633673     
 -3.765239308333814E-003 -2.340358393891916E-004 -0.101181140231222     
 -4.288855685776371E-003 -1.127387972176220E-004 -9.538184572184337E-002
 -5.054752228641304E-003  5.627360435662735E-005 -8.768532494202373E-002
 -4.934534856707687E-003  2.438786673714047E-004 -9.420344970426681E-002
 -4.656281365486382E-003  1.036703693192192E-006 -9.617278247093985E-002
 -4.934320786808377E-003 -2.418071331181505E-004 -9.420326747623922E-002
 -4.780123588496052E-003  7.808406171522879E-005 -0.101838392262446     
 -4.706989160664600E-003  1.154789660053490E-006 -0.102408240473550     
 -4.779913393945188E-003 -7.577538341355217E-005 -0.101838128379486     
 -4.560759380514414E-003 -2.568319881784169E-005 -0.110705167984281     
 -4.558467065111145E-003  1.271000805638092E-006 -0.110654408735170     
 -4.560557207550935E-003  2.822360020899480E-005 -0.110704798403002     
 -4.326930633926909E-003 -6.307719231070178E-005 -0.118519765297994     
 -4.335441340018664E-003  1.381944262148798E-006 -0.118368784479731     
 -4.326741758535056E-003  6.583869051522969E-005 -0.118519277062897     
 -4.092179297208930E-003 -7.082589793368449E-005 -0.123841794227845     
 -4.097319122600975E-003  1.484899140398100E-006 -0.123695748581394     
 -4.092009061731487E-003  7.379250015364654E-005 -0.123841180479521     
 -3.858678457576198E-003 -7.032962488738704E-005 -0.126047654348007     
 -3.860421086906500E-003  1.577197848262281E-006 -0.125897861620596     
 -3.858532191973565E-003  7.348002602521753E-005 -0.126046912772316     
 -3.626000234199665E-003 -6.888051141888319E-005 -0.125358058697011     
 -3.626207600172999E-003  1.656179979219345E-006 -0.125284061733475     
 -3.625883264505358E-003  7.218807685788805E-005 -0.125357192048699     
 -3.393661124292381E-003 -6.764794078761654E-005 -0.122807014425029     
 -3.393554040275905E-003  1.719172805879226E-006 -0.123257798652635     
 -3.393578766176752E-003  7.108071773831049E-005 -0.122806030368075     
 -3.161496875253788E-003 -6.568352760791779E-005 -0.120258297191493     
 -3.162497540466586E-003  1.763543439249232E-006 -0.121971371601559     
 -3.161454417981326E-003  6.920417461779614E-005 -0.120257202314307     
 -2.701410980943215E-003 -6.707747964201511E-005 -0.123491461215223     
 -2.702307927932985E-003  1.786263082042366E-006 -0.125256130403296     
 -2.701464913131963E-003  7.064190087123299E-005 -0.123490229897320     
 -2.471190806237823E-003 -6.770325061605845E-005 -0.129269036363719     
 -2.471805548714225E-003  1.759187332796062E-006 -0.129762484233976     
 -2.471301002798944E-003  7.121278063720017E-005 -0.129267784980188     
 -2.241296586815304E-003 -6.770787961400416E-005 -0.134994998658685     
 -2.241423845492358E-003  1.702590974842470E-006 -0.134926262404471     
 -2.241468711642830E-003  7.110334633719882E-005 -0.134993741537577     
 -2.011394365662736E-003 -6.796727141454302E-005 -0.138676403662032     