# vtk DataFile Version 3.0
 Bridge                                                                         
  
ASCII
DATASET UNSTRUCTURED_GRID
 POINTS        4085 double
   200.000000000000       -10.0000000000000       0.000000000000000E+000
   200.000000000000        10.0000000000000       0.000000000000000E+000
   150.000000000000        10.0000000000000       0.000000000000000E+000
   150.000000000000       -10.0000000000000       0.000000000000000E+000
   100.000000000000        10.0000000000000       0.000000000000000E+000
   100.000000000000       -10.0000000000000       0.000000000000000E+000
   50.0000000000000        10.0000000000000       0.000000000000000E+000
   50.0000000000000       -10.0000000000000       0.000000000000000E+000
  0.000000000000000E+000   10.0000000000000       0.000000000000000E+000
  0.000000000000000E+000  -10.0000000000000       0.000000000000000E+000
  -50.0000000000000        10.0000000000000       0.000000000000000E+000
  -50.0000000000000       -10.0000000000000       0.000000000000000E+000
  -100.000000000000        10.0000000000000       0.000000000000000E+000
  -100.000000000000       -10.0000000000000       0.000000000000000E+000
  -150.000000000000        10.0000000000000       0.000000000000000E+000
  -150.000000000000       -10.0000000000000       0.000000000000000E+000
  -200.000000000000        10.0000000000000       0.000000000000000E+000
  -200.000000000000       -10.0000000000000       0.000000000000000E+000
  -250.000000000000        10.0000000000000       0.000000000000000E+000
  -250.000000000000       -10.0000000000000       0.000000000000000E+000
   250.000000000000       -10.0000000000000       0.000000000000000E+000
   250.000000000000        10.0000000000000       0.000000000000000E+000
   200.000000000000       -5.00000000000000       0.000000000000000E+000
   200.000000000000       0.000000000000000E+000  0.000000000000000E+000
   200.000000000000        5.00000000000000       0.000000000000000E+000
   195.000000000000        10.0000000000000       0.000000000000000E+000
   190.000000000000        10.0000000000000       0.000000000000000E+000
   185.000000000000        10.0000000000000       0.000000000000000E+000
   180.000000000000        10.0000000000000       0.000000000000000E+000
   175.000000000000        10.0000000000000       0.000000000000000E+000
   170.000000000000        10.0000000000000       0.000000000000000E+000
   165.000000000000        10.0000000000000       0.000000000000000E+000
   160.000000000000        10.0000000000000       0.000000000000000E+000
   155.000000000000        10.0000000000000       0.000000000000000E+000
   150.000000000000        5.00000000000000       0.000000000000000E+000
   150.000000000000       0.000000000000000E+000  0.000000000000000E+000
   150.000000000000       -5.00000000000000       0.000000000000000E+000
   155.000000000000       -10.0000000000000       0.000000000000000E+000
   160.000000000000       -10.0000000000000       0.000000000000000E+000
   165.000000000000       -10.0000000000000       0.000000000000000E+000
   170.000000000000       -10.0000000000000       0.000000000000000E+000
   175.000000000000       -10.0000000000000       0.000000000000000E+000
   180.000000000000       -10.0000000000000       0.000000000000000E+000
   185.000000000000       -10.0000000000000       0.000000000000000E+000
   190.000000000000       -10.0000000000000       0.000000000000000E+000
   195.000000000000       -10.0000000000000       0.000000000000000E+000
   145.000000000000        10.0000000000000       0.000000000000000E+000
   140.000000000000        10.0000000000000       0.000000000000000E+000
   135.000000000000        10.0000000000000       0.000000000000000E+000
   130.000000000000        10.0000000000000       0.000000000000000E+000
   125.000000000000        10.0000000000000       0.000000000000000E+000
   120.000000000000        10.0000000000000       0.000000000000000E+000
   115.000000000000        10.0000000000000       0.000000000000000E+000
   110.000000000000        10.0000000000000       0.000000000000000E+000
   105.000000000000        10.0000000000000       0.000000000000000E+000
   100.000000000000        5.00000000000000       0.000000000000000E+000
   100.000000000000       0.000000000000000E+000  0.000000000000000E+000
   100.000000000000       -5.00000000000000       0.000000000000000E+000
   105.000000000000       -10.0000000000000       0.000000000000000E+000
   110.000000000000       -10.0000000000000       0.000000000000000E+000
   115.000000000000       -10.0000000000000       0.000000000000000E+000
   120.000000000000       -10.0000000000000       0.000000000000000E+000
   125.000000000000       -10.0000000000000       0.000000000000000E+000
   130.000000000000       -10.0000000000000       0.000000000000000E+000
   135.000000000000       -10.0000000000000       0.000000000000000E+000
   140.000000000000       -10.0000000000000       0.000000000000000E+000
   145.000000000000       -10.0000000000000       0.000000000000000E+000
   95.0000000000000        10.0000000000000       0.000000000000000E+000
   90.0000000000000        10.0000000000000       0.000000000000000E+000
   85.0000000000000        10.0000000000000       0.000000000000000E+000
   80.0000000000000        10.0000000000000       0.000000000000000E+000
   75.0000000000000        10.0000000000000       0.000000000000000E+000
   70.0000000000000        10.0000000000000       0.000000000000000E+000
   65.0000000000000        10.0000000000000       0.000000000000000E+000
   60.0000000000000        10.0000000000000       0.000000000000000E+000
   55.0000000000000        10.0000000000000       0.000000000000000E+000
   50.0000000000000        5.00000000000000       0.000000000000000E+000
   50.0000000000000       0.000000000000000E+000  0.000000000000000E+000
   50.0000000000000       -5.00000000000000       0.000000000000000E+000
   55.0000000000000       -10.0000000000000       0.000000000000000E+000
   60.0000000000000       -10.0000000000000       0.000000000000000E+000
   65.0000000000000       -10.0000000000000       0.000000000000000E+000
   70.0000000000000       -10.0000000000000       0.000000000000000E+000
   75.0000000000000       -10.0000000000000       0.000000000000000E+000
   80.0000000000000       -10.0000000000000       0.000000000000000E+000
   85.0000000000000       -10.0000000000000       0.000000000000000E+000
   90.0000000000000       -10.0000000000000       0.000000000000000E+000
   95.0000000000000       -10.0000000000000       0.000000000000000E+000
   45.0000000000000        10.0000000000000       0.000000000000000E+000
   40.0000000000000        10.0000000000000       0.000000000000000E+000
   35.0000000000000        10.0000000000000       0.000000000000000E+000
   30.0000000000000        10.0000000000000       0.000000000000000E+000
   25.0000000000000        10.0000000000000       0.000000000000000E+000
   20.0000000000000        10.0000000000000       0.000000000000000E+000
   15.0000000000000        10.0000000000000       0.000000000000000E+000
   10.0000000000000        10.0000000000000       0.000000000000000E+000
   5.00000000000000        10.0000000000000       0.000000000000000E+000
  0.000000000000000E+000   5.00000000000000       0.000000000000000E+000
  0.000000000000000E+000  0.000000000000000E+000  0.000000000000000E+000
  0.000000000000000E+000  -5.00000000000000       0.000000000000000E+000
   5.00000000000000       -10.0000000000000       0.000000000000000E+000
   10.0000000000000       -10.0000000000000       0.000000000000000E+000
   15.0000000000000       -10.0000000000000       0.000000000000000E+000
   20.0000000000000       -10.0000000000000       0.000000000000000E+000
   25.0000000000000       -10.0000000000000       0.000000000000000E+000
   30.0000000000000       -10.0000000000000       0.000000000000000E+000
   35.0000000000000       -10.0000000000000       0.000000000000000E+000
   40.0000000000000       -10.0000000000000       0.000000000000000E+000
   45.0000000000000       -10.0000000000000       0.000000000000000E+000
  -5.00000000000000        10.0000000000000       0.000000000000000E+000
  -10.0000000000000        10.0000000000000       0.000000000000000E+000
  -15.0000000000000        10.0000000000000       0.000000000000000E+000
  -20.0000000000000        10.0000000000000       0.000000000000000E+000
  -25.0000000000000        10.0000000000000       0.000000000000000E+000
  -30.0000000000000        10.0000000000000       0.000000000000000E+000
  -35.0000000000000        10.0000000000000       0.000000000000000E+000
  -40.0000000000000        10.0000000000000       0.000000000000000E+000
  -45.0000000000000        10.0000000000000       0.000000000000000E+000
  -50.0000000000000        5.00000000000000       0.000000000000000E+000
  -50.0000000000000       0.000000000000000E+000  0.000000000000000E+000
  -50.0000000000000       -5.00000000000000       0.000000000000000E+000
  -45.0000000000000       -10.0000000000000       0.000000000000000E+000
  -40.0000000000000       -10.0000000000000       0.000000000000000E+000
  -35.0000000000000       -10.0000000000000       0.000000000000000E+000
  -30.0000000000000       -10.0000000000000       0.000000000000000E+000
  -25.0000000000000       -10.0000000000000       0.000000000000000E+000
  -20.0000000000000       -10.0000000000000       0.000000000000000E+000
  -15.0000000000000       -10.0000000000000       0.000000000000000E+000
  -10.0000000000000       -10.0000000000000       0.000000000000000E+000
  -5.00000000000000       -10.0000000000000       0.000000000000000E+000
  -55.0000000000000        10.0000000000000       0.000000000000000E+000
  -60.0000000000000        10.0000000000000       0.000000000000000E+000
  -65.0000000000000        10.0000000000000       0.000000000000000E+000
  -70.0000000000000        10.0000000000000       0.000000000000000E+000
[...]
 CELL_DATA        2884
 POINT_DATA        4085
 FIELD Result            2
 Displacement_Load_Case01            3        4085 double
 -5.905905434368687E-002  1.275145016614954E-003 -0.145990968771855     
 -5.905970004196263E-002 -1.276767575711400E-003 -0.145993419467416     
 -4.758658869386847E-002  1.121359433445013E-003 -0.204554046319547     
 -4.758713411438924E-002 -1.123470299212504E-003 -0.204550181019550     
 -5.739895357345789E-003  9.786269055957707E-004 -0.151053209002325     
 -5.740474215308776E-003 -9.784986433018740E-004 -0.151050153032167     
 -1.209817055146052E-002  3.502471818601893E-004 -9.258565787240994E-002
 -1.209816118907056E-002 -3.491191550368970E-004 -9.258410620525287E-002
 -2.100147702363309E-006 -4.087506191181104E-003 -7.924126847778549E-003
 -2.469213382145852E-006  4.087550397890900E-003 -7.924185760592301E-003
  1.211496765452891E-002  3.226205139019760E-004 -9.266570981274792E-002
  1.213070218491098E-002 -3.788076486744370E-004 -9.267461918425901E-002
  5.762144277224055E-003  9.194557559786295E-004 -0.151205877937731     
  5.766051435495696E-003 -1.043658519303282E-003 -0.151218930656416     
  4.771054811896879E-002  1.035019367367020E-003 -0.204952991480925     
  4.772268681147560E-002 -1.218222263483594E-003 -0.204969545633870     
  5.919183481473133E-002 -1.373547028459318E-003 -0.146525245918450     
  5.918571944111108E-002  1.155823591621854E-003 -0.146556460483054     
  5.429413560867339E-004 -5.900794555251295E-004 -5.060422258054127E-004
  5.262616943645872E-004  3.974704692260105E-004 -5.374655631064979E-004
 -2.484957215503525E-004  2.082023888108422E-004 -2.385644423048170E-004
 -2.484866892185827E-004 -2.081896944871598E-004 -2.385691093540638E-004
 -4.489147077336074E-002  6.382544585541726E-004 -0.318888260082026     
 -4.374318705021315E-002 -8.157730265487477E-007 -0.416044259174936     
 -4.489172853521448E-002 -6.398838286157003E-004 -0.318889586089820     
 -5.053762087261980E-002 -2.283892187404183E-003  -4.52783886599136     
 -4.777343000948289E-002 -9.958379063759260E-004  -14.7518450849082     
 -4.686598235854456E-002 -7.202805496117763E-005  -25.7084700086721     
 -4.635940509566364E-002  2.833485769539311E-004  -33.7471320407717     
 -4.583350270276970E-002  3.704356110952383E-004  -36.6770956117428     
 -4.522598295331050E-002  4.125757422776625E-004  -33.7672658760814     
 -4.458483455124532E-002  5.696644601078076E-004  -25.7466218633681     
 -4.412130123653426E-002  9.936748020732556E-004  -14.8038484026246     
 -4.451784851216879E-002  1.589733039747206E-003  -4.58731642293646     
 -4.101131343080095E-002  5.606775448194835E-004 -0.504486874513935     
 -4.047836133523743E-002 -1.065239389214828E-006 -0.671692360744990     
 -4.101151813509712E-002 -5.628032240923169E-004 -0.504484755940478     
 -4.451822592191507E-002 -1.592062811199307E-003  -4.58731269533407     
 -4.412154825609362E-002 -9.961488973873800E-004  -14.8038448196875     
 -4.458496134132950E-002 -5.722244741377672E-004  -25.7466184199017     
 -4.522599342838175E-002 -4.151638121154314E-004  -33.7672625760834     
 -4.583340072033852E-002 -3.729944984551573E-004  -36.6770924522728     
 -4.635919460374587E-002 -2.858230269950708E-004  -33.7471290237602     
 -4.686566738977843E-002  6.969133257049184E-005  -25.7084671331742     
 -4.777301455466657E-002  9.936890139876906E-004  -14.7518423509069     
 -5.053710336141014E-002  2.281977989491501E-003  -4.52783627440511     
 -4.075771976306761E-002  6.617673923102021E-004  -4.58067978460989     
 -3.660230567577961E-002  1.262619416805142E-003  -14.7946473814877     
 -3.331008231390011E-002  1.696575350625061E-003  -25.7379859069250     
 -3.021192349715874E-002  1.869375160524401E-003  -33.7614952023939     
 -2.712888222241176E-002  1.908192916976448E-003  -36.6754667282940     
 -2.405088213790615E-002  1.861506397655028E-003  -33.7501040380455     
 -2.096095894853242E-002  1.657057711745047E-003  -25.7153725832189     
 -1.764085132046329E-002  1.139788112911049E-003  -14.7611804719934     
 -1.328864314334890E-002  4.228049712671146E-004  -4.53684667071142     
 -1.360433596471463E-002  4.891701093403216E-004 -0.538174051652633     
 -1.424172390868889E-002  6.847049986154864E-008 -0.752710031190993     
 -1.360457482689507E-002 -4.890352984894679E-004 -0.538172281916289     
 -1.328915840878968E-002 -4.229326757904493E-004  -4.53684353138285     
 -1.764133529782309E-002 -1.140151342782723E-003  -14.7611772534772     
 -2.096142266079812E-002 -1.657646709730887E-003  -25.7153692821246     
 -2.405133190658250E-002 -1.862313595094583E-003  -33.7501006576224     
 -2.712932437562901E-002 -1.909212884243202E-003  -36.6754632652836     
 -3.021236439766568E-002 -1.870605681376818E-003  -33.7614916601197     
 -3.331052826805945E-002 -1.698017436652731E-003  -25.7379822819599     
 -3.660276296032687E-002 -1.264275863384705E-003  -14.7946436774171     
 -4.075820081626995E-002 -6.636429008362465E-004  -4.58067599755275     
 -1.003014478150166E-002  1.532742537026162E-003  -4.52634587267582     
 -1.112354978989718E-002  8.160990231858472E-004  -14.7393744598460     
 -1.118551155703430E-002  3.004710040480949E-004  -25.6817059972674     
 -1.102045668427486E-002  9.888969403929489E-005  -33.7043073900910     
 -1.085255185475630E-002  5.157502744334976E-005  -36.6174778330602     
 -1.070576673044590E-002  6.568571542522037E-005  -33.6915384125335     
 -1.057566268418598E-002  1.350615773356186E-004  -25.6564357730081     
 -1.052351777282317E-002  3.023688283255120E-004  -14.7021517868054     
 -1.080148679124250E-002  5.313185207477021E-004  -4.47796292065512     
 -9.590152815164161E-003  1.761297369306937E-004 -0.530652020167068     
 -9.387019099355852E-003  5.725446173722498E-007 -0.772578169159348     
 -9.590136565518591E-003 -1.749888225636912E-004 -0.530650977530605     
 -1.080150106035944E-002 -5.301789197960377E-004  -4.47796121598086     
 -1.052356810946219E-002 -3.012356508511372E-004  -14.7021499335283     
 -1.057575569549083E-002 -1.339552581591315E-004  -25.6564337674843     
 -1.070590782863793E-002 -6.462921248349932E-005  -33.6915362583431     
 -1.085274648716810E-002 -5.059372854399789E-005  -36.6174755265231     
 -1.102071029692546E-002 -9.801173246481728E-005  -33.7043049350493     
 -1.118582954486954E-002 -2.997272532325003E-004  -25.6817033896739     
 -1.112393757436113E-002 -8.155220529324092E-004  -14.7393717040154     
 -1.003061251781876E-002 -1.532366586192278E-003  -4.52634296386684     
 -9.618876673136521E-003  1.772422033750161E-004  -4.46703961022686     
 -8.159208039965655E-003  4.060879452974957E-004  -14.6771563025941     
 -7.027144974501257E-003  5.711411061591883E-004  -25.6151279186744     
 -5.965583843962767E-003  6.396351290174912E-004  -33.6325843858115     
 -4.906510477723713E-003  6.699065324979119E-004  -36.5404349520470     
 -3.861157576762473E-003  6.992475605937327E-004  -33.6096381627142     
 -2.887446669743780E-003  7.138722915719095E-004  -25.5707388729970     
 -2.071742165568401E-003  5.266317508486393E-004  -14.6143348503046     
 -1.358649408778077E-003 -9.885087313994909E-005  -4.39029183300861     
  2.488036353419644E-006 -1.378628186899010E-003 -0.462805763497235     
  3.425283407117653E-006  1.157708009949211E-008 -0.713714098289396     
  3.506371015931563E-006  1.378645352524454E-003 -0.462805534543709     
 -1.358342686082748E-003  9.873302023920261E-005  -4.39029172649474     
 -2.071346627429484E-003 -5.264622760151892E-004  -14.6143345862286     
 -2.887085365327245E-003 -7.134865191552221E-004  -25.5707384447852     
 -3.860837006393908E-003 -6.986859356917663E-004  -33.6096375764623     
 -4.906232246304158E-003 -6.691901820364278E-004  -36.5404342019332     
 -5.965350920653497E-003 -6.387857467256855E-004  -33.6325834774665     
 -7.026960661755090E-003 -5.701821019500005E-004  -25.6151268465943     
 -8.159075689106805E-003 -4.050442199457440E-004  -14.6771550722318     
 -9.618800900689135E-003 -1.761399887990877E-004  -4.46703821600059     
  1.360324506251509E-003 -1.002971365958691E-004  -4.39029317711347     
  2.075747115010696E-003  5.246482110144058E-004  -14.6143422906374     
  2.892642738190549E-003  7.105542451432172E-004  -25.5707559254178     
  3.867375619225550E-003  6.936892755460750E-004  -33.6096670583028     
  4.913884658031079E-003  6.614617989836102E-004  -36.5404767384806     
  5.974284661005849E-003  6.278591820458453E-004  -33.6326388349569     
  7.037331270732057E-003  5.556876187263729E-004  -25.6151936944913     
  8.171072843305817E-003  3.866548752138735E-004  -14.6772308242226     
  9.632784632038092E-003  1.536193924182890E-004  -4.46711928701490     
  9.609222503934379E-003  1.480063602213151E-004 -0.530907614963896     
  9.409840563474624E-003 -2.805967876028993E-005 -0.772887718946083     
  9.616985978301662E-003 -2.041428114349675E-004 -0.530911860843088     
  9.648225013432267E-003 -2.015814423557938E-004  -4.46712731657001     
  8.185926112923101E-003 -4.266101329048689E-004  -14.6772379630916     
  7.051324210562443E-003 -5.880011032706449E-004  -25.6151999501081     
  5.987148630197742E-003 -6.530291213019037E-004  -33.6326442035633     
  4.925351058686989E-003 -6.801199139340576E-004  -36.5404812201306     
  3.877176171739176E-003 -7.066014111471350E-004  -33.6096706566596     
  2.900510386384279E-003 -7.186223580589791E-004  -25.5707586330629     
  2.081419203106602E-003 -5.288796678496304E-004  -14.6143441188340     
  1.363430992742760E-003  9.877758545044295E-005  -4.39029411051232     
  1.081862494109645E-002  4.996242600488451E-004  -4.47804364018521     
  1.054184678172444E-002  2.663293729844195E-004  -14.7022374144643     
  1.059555100499547E-002  9.478709442727635E-005  -25.6565295071809     
  1.072741624197665E-002  2.137964889696479E-005  -33.6916421389509     
  1.087614228949079E-002  3.495643373788516E-006  -36.6175925761547     
  1.104619349331192E-002  4.743643606176447E-005  -33.7044329876839     
  1.121353463917298E-002  2.463555486637445E-004  -25.6818416368174     
  1.115345900721375E-002  7.604670370585500E-004  -14.7395182994631     
  1.005971243302031E-002  1.476519391534884E-003  -4.52649566657106     
  1.364518921629534E-002  4.284816265366192E-004 -0.538682892572894     
  1.428587916205199E-002 -6.212639382313686E-005 -0.753316813131512     
  1.364899706554535E-002 -5.527217817470458E-004 -0.538689265483987     
  1.006703079469045E-002 -1.597243439205241E-003  -4.52650830571894     
  1.116295514241956E-002 -8.764001181119044E-004  -14.7395305232309     
  1.122476302294876E-002 -3.566378900258689E-004  -25.6818534465199     
  1.105888421956960E-002 -1.513058476616384E-004  -33.7044443827576     
  1.089002578771875E-002 -1.002868341634130E-004  -36.6176035563685     
  1.074222091280378E-002 -1.105639668265215E-004  -33.6916527053369     
  1.061100473589804E-002 -1.759718983123640E-004  -25.6565396579001     
  1.055767752785116E-002 -3.392571985651208E-004  -14.7022471521837     
  1.083455620473409E-002 -5.641728200751911E-004  -4.47805296133621     
  1.332844543286013E-002  3.607640710347614E-004  -4.53700799207133     
  1.769122496796559E-002  1.077317144780965E-003  -14.7613620847470     
  2.101967485285567E-002  1.593333415220439E-003  -25.7155830374408     
  2.411753491544436E-002  1.795486006259511E-003  -33.7503483259713     
  2.720359616782887E-002  1.839260502441766E-003  -36.6757471289913     
  3.029487655054530E-002  1.797192420466301E-003  -33.7618107608534     
  3.340145090872581E-002  1.620853868857364E-003  -25.7383333855342     
  3.670248467975779E-002  1.182984040242425E-003  -14.7950206911981     
  4.086797111523944E-002  5.780316262276716E-004  -4.58107104913490     
  4.112966257277686E-002  4.721792003783774E-004 -0.505435700022442     
  4.059895670653316E-002 -9.168387441926824E-005 -0.672760461514346     
  4.113573082492679E-002 -6.555063540714196E-004 -0.505443887555042     
  4.088070451465720E-002 -7.545844466943203E-004  -4.58108725163742     
  3.671546971304377E-002 -1.352664563671004E-003  -14.7950365446822     
  3.341440426819091E-002 -1.783616887484813E-003  -25.7383488875430     
  3.030752897471757E-002 -1.953123853487559E-003  -33.7618259140300     
  2.721567866550495E-002 -1.988578158250096E-003  -36.6757619304211     
  2.412877889586249E-002 -1.938542147605267E-003  -33.7503627788730     
  2.102981372654602E-002 -1.730615424951077E-003  -25.7155971382650     
  1.769999170504913E-002 -1.209407910425095E-003  -14.7613758374071     
  1.333539728197037E-002 -4.883424014161149E-004  -4.53702139221085     
  4.464250998470252E-002  1.500857245640510E-003  -4.58772393471569     
  4.425030947140889E-002  9.009945805521484E-004  -14.8042735886324     
  4.471946407155624E-002  4.735673766612166E-004  -25.7470705562064     
  4.536667077022165E-002  3.136403030554586E-004  -33.7677400267843     
  4.598053853022716E-002  2.692107768272126E-004  -36.6775946206799     
  4.651316435903376E-002  1.806805001680864E-004  -33.7476521415960     
  4.702661610018661E-002 -1.743634602174679E-004  -25.7090057109854     
  4.793916599076879E-002 -1.094622877011369E-003  -14.7523885588932     
  5.069990385929879E-002 -2.376809638381704E-003  -4.52838150619249     
  4.508868894778829E-002 -7.425739922804997E-004 -0.320189904599896     
  4.394505567775229E-002 -1.091755854995954E-004 -0.417439720508109     
  4.508737728661016E-002  5.243712426133301E-004 -0.320205506091295     
  5.069786803676690E-002  2.157503218823736E-003  -4.52841127137527     
  4.794000740027753E-002  8.756275718911715E-004  -14.7524168418733     
  4.702987430446674E-002 -4.311978000422520E-005  -25.7090325365146     
  4.651855429731160E-002 -3.955490506729326E-004  -33.7476774923293     
  4.598777903578365E-002 -4.804685996151954E-004  -36.6776185068025     
  4.537547867152487E-002 -5.204326636403202E-004  -33.7677624451508     
  4.472955581034459E-002 -6.751815352407572E-004  -25.7470915029667     
  4.426140171546238E-002 -1.096856512011723E-003  -14.8042930746568     
  4.465430585974758E-002 -1.690532185402021E-003  -4.58774194197388     
  4.645489578079836E-002 -3.849159334821955E-004  -4.52352749075155     
  3.945129364074515E-002 -1.669742362704442E-003  -14.7288887786583     
  3.429597459938883E-002 -2.592952928968292E-003  -25.6569927287710     
  2.954384646365752E-002 -2.953953574936527E-003  -33.6609139099375     
  2.478975867681828E-002 -3.047972412305741E-003  -36.5539935373421     
  1.999586968570016E-002 -3.064857438306603E-003  -33.6087516147494     
  1.521770236209131E-002 -3.054423336369819E-003  -25.5584322523821     
  1.051605813892368E-002 -2.920750191639968E-003  -14.5953255123910     
  5.831472858059082E-003 -2.444265989244681E-003  -4.37229790967442     
  9.108653522538888E-004 -2.570844949335615E-004 -2.252954055914723E-003
  1.012467517852796E-003 -9.634648714094802E-005 -2.192011839018644E-003
  9.024881912328581E-004  6.440805655119824E-005 -2.268703151893522E-003
  5.818231249233310E-003  2.245582799532990E-003  -4.37232931580698     
  1.050566587477333E-002  2.716922331503910E-003  -14.5953568942794     
  1.520968928901990E-002  2.846769699641162E-003  -25.5584636175159     
  1.998976094323959E-002  2.854445105255276E-003  -33.6087829550957     
  2.478506975710047E-002  2.835634982471752E-003  -36.5540248615760     
  2.954009342944978E-002  2.740279689727812E-003  -33.6609452086375     
  3.429267542843342E-002  2.378287601546519E-003  -25.6570240122165     
  3.944796948548630E-002  1.454229612741143E-003  -14.7289200355785     
  4.645089934686206E-002  1.684895264472581E-004  -4.52355873362018     
 -4.625444789379046E-002  2.823295520614512E-004  -4.52300736876094     
 -3.920961716253604E-002  1.573761263862787E-003  -14.7283863826771     
 -3.402142182973177E-002  2.501837966803628E-003  -25.6565120931315     
 -2.923783319982073E-002  2.865309293443854E-003  -33.6604601191119     
 -2.445170766814307E-002  2.961617240979745E-003  -36.5535707152197     
 -1.962596619775523E-002  2.983174672810139E-003  -33.6083634886313     
 -1.482099074226160E-002  2.981760519272241E-003  -25.5580799725372     
 -1.011092966550026E-002  2.853425863083458E-003  -14.5950081673096     
 -5.457864636282033E-003  2.357115886025091E-003  -4.37201016236767     
 -3.936643222872386E-004  7.114392476084118E-005 -9.661454005527208E-004
 -4.369975136726930E-004  4.810583638806307E-009 -9.353745037469458E-004
 -3.936634081758292E-004 -7.113341264457693E-005 -9.661459796805010E-004
 -5.457928608341825E-003 -2.357136485624748E-003  -4.37201040766376     
 -1.011106229080756E-002 -2.853498901307299E-003  -14.5950086611975     
 -1.482119020835606E-002 -2.981920238675105E-003  -25.5580807087640     
 -1.962623046571644E-002 -2.983453908983066E-003  -33.6083644717933     
 -2.445203445505430E-002 -2.962047896576593E-003  -36.5535719423368     
 -2.923822020635978E-002 -2.865922052488089E-003  -33.6604615915709     
 -3.402186669203289E-002 -2.502662404627243E-003  -25.6565138111222     
 -3.921011750071212E-002 -1.574824555867089E-003  -14.7283883444174     
 -4.625500683127524E-002 -2.836565662491902E-004  -4.52300957769344     
 -4.768192830935965E-002  2.215778368641624E-003  -4.71277179421024     
 -4.555028990073357E-002 -9.639057441543712E-007  -4.81674460457667     
 -4.768217547039088E-002 -2.217709498855648E-003  -4.71277319879507     
 -4.767284887975620E-002  9.417204388447546E-004  -14.9478663753543     
 -4.711426461157370E-002 -1.088372980864567E-006  -15.0597785381372     
 -4.767305441918583E-002 -9.438903451327050E-004  -14.9478678588095     
 -4.716675945084521E-002  1.476853056839026E-004  -25.9153022598006     
 -4.715190279679356E-002 -1.183788739073700E-006  -26.0356005925139     
 -4.716691484747708E-002 -1.500452005390472E-004  -25.9153038225502     
 -4.655110254240103E-002 -1.350555001710354E-004  -33.9653632810311     
 -4.662400103083519E-002 -1.253228810585030E-006  -34.0936141574127     
 -4.655120554437645E-002  1.325570713352849E-004  -33.9653649223382     
 -4.593152579309499E-002 -1.934774003573591E-004  -36.9074913691257     
 -4.599049152311636E-002 -1.296023889714048E-006  -37.0431831111769     
 -4.593157451302974E-002  1.908936405503794E-004  -36.9074930906676     
 -4.532618000999488E-002 -2.180419376052386E-004  -34.0109150667256     
 -4.537135225039989E-002 -1.311226370080927E-006  -34.1530874353430     
 -4.532617247046553E-002  2.154281103023624E-004  -34.0109168665003     
 -4.472410946183736E-002 -3.415699433014082E-004  -26.0042996686151     
 -4.471952248090405E-002 -1.297807753771025E-006  -26.1525046763787     
 -4.472404358988458E-002  3.389831945209068E-004  -26.0043015496422     
 -4.407311395747642E-002 -7.058981717634645E-004  -15.0761132681196     
 -4.381361461289103E-002 -1.254415718269401E-006  -15.2298779746044     
 -4.407298809767889E-002  7.033978688762926E-004  -15.0761152270444     
 -4.319187938424279E-002 -1.295546422759847E-003  -4.87391984810199     
 -4.220210778555284E-002 -1.175539611226740E-006  -5.03388328896954     
 -4.319169892546447E-002  1.293193188952581E-003  -4.87392188945104     
 -3.943549388454767E-002  1.675882247843551E-004  -4.88874557153936     
 -3.844616490119152E-002 -9.429166866777819E-007  -5.06017524915088     
 -3.943525966896657E-002 -1.694635129764564E-004  -4.88874765653240     
 -3.655867195852015E-002 -4.263371189314755E-004  -15.1098214149286     
 -3.629974764057368E-002 -8.269252081406054E-007  -15.2864978594229     
 -3.655843943420776E-002  4.246826327048077E-004  -15.1098234621137     
 -3.345088935706391E-002 -7.988928908505494E-004  -26.0600373084397     
 -3.344167344155889E-002 -7.197357669623620E-007  -26.2427044139060     
 -3.345066249461283E-002  7.974528098025394E-004  -26.0600393220319     
 -3.029039850757631E-002 -9.374594428592961E-004  -34.0909469573679     