# vtk DataFile Version 3.0
 Bridge                                                                         
  
ASCII
DATASET UNSTRUCTURED_GRID
 POINTS        4085 double
   200.000000000000       -10.0000000000000       0.000000000000000E+000
   200.000000000000        10.0000000000000       0.000000000000000E+000
   150.000000000000        10.0000000000000       0.000000000000000E+000
   150.000000000000       -10.0000000000000       0.000000000000000E+000
   100.000000000000        10.0000000000000       0.000000000000000E+000
   100.000000000000       -10.0000000000000       0.000000000000000E+000
   50.0000000000000        10.0000000000000       0.000000000000000E+000
   50.0000000000000       -10.0000000000000       0.000000000000000E+000
  0.000000000000000E+000   10.0000000000000       0.000000000000000E+000
  0.000000000000000E+000  -10.0000000000000       0.000000000000000E+000
  -50.0000000000000        10.0000000000000       0.000000000000000E+000
  -50.0000000000000       -10.0000000000000       0.000000000000000E+000
  -100.000000000000        10.0000000000000       0.000000000000000E+000
  -100.000000000000       -10.0000000000000       0.000000000000000E+000
  -150.000000000000        10.0000000000000       0.000000000000000E+000
  -150.000000000000       -10.0000000000000       0.000000000000000E+000
  -200.000000000000        10.0000000000000       0.000000000000000E+000
  -200.000000000000       -10.0000000000000       0.000000000000000E+000
  -250.000000000000        10.0000000000000       0.000000000000000E+000
  -250.000000000000       -10.0000000000000       0.000000000000000E+000
   250.000000000000       -10.0000000000000       0.000000000000000E+000
   250.000000000000        10.0000000000000       0.000000000000000E+000
   200.000000000000       -5.00000000000000       0.000000000000000E+000
   200.000000000000       0.000000000000000E+000  0.000000000000000E+000
   200.000000000000        5.00000000000000       0.000000000000000E+000
   195.000000000000        10.0000000000000       0.000000000000000E+000
   190.000000000000        10.0000000000000       0.000000000000000E+000
   185.000000000000        10.0000000000000       0.000000000000000E+000
   180.000000000000        10.0000000000000       0.000000000000000E+000
   175.000000000000        10.0000000000000       0.000000000000000E+000
   170.000000000000        10.0000000000000       0.000000000000000E+000
   165.000000000000        10.0000000000000       0.000000000000000E+000
   160.000000000000        10.0000000000000       0.000000000000000E+000
   155.000000000000        10.0000000000000       0.000000000000000E+000
   150.000000000000        5.00000000000000       0.000000000000000E+000
   150.000000000000       0.000000000000000E+000  0.000000000000000E+000
   150.000000000000       -5.00000000000000       0.000000000000000E+000
   155.000000000000       -10.0000000000000       0.000000000000000E+000
   160.000000000000       -10.0000000000000       0.000000000000000E+000
   165.000000000000       -10.0000000000000       0.000000000000000E+000
   170.000000000000       -10.0000000000000       0.000000000000000E+000
   175.000000000000       -10.0000000000000       0.000000000000000E+000
   180.000000000000       -10.0000000000000       0.000000000000000E+000
   185.000000000000       -10.0000000000000       0.000000000000000E+000
   190.000000000000       -10.0000000000000       0.000000000000000E+000
   195.000000000000       -10.0000000000000       0.000000000000000E+000
   145.000000000000        10.0000000000000       0.000000000000000E+000
   140.000000000000        10.0000000000000       0.000000000000000E+000
   135.000000000000        10.0000000000000       0.000000000000000E+000
   130.000000000000        10.0000000000000       0.000000000000000E+000
   125.000000000000        10.0000000000000       0.000000000000000E+000
   120.000000000000        10.0000000000000       0.000000000000000E+000
   115.000000000000        10.0000000000000       0.000000000000000E+000
   110.000000000000        10.0000000000000       0.000000000000000E+000
   105.000000000000        10.0000000000000       0.000000000000000E+000
   100.000000000000        5.00000000000000       0.000000000000000E+000
   100.000000000000       0.000000000000000E+000  0.000000000000000E+000
   100.000000000000       -5.00000000000000       0.000000000000000E+000
   105.000000000000       -10.0000000000000       0.000000000000000E+000
   110.000000000000       -10.0000000000000       0.000000000000000E+000
   115.000000000000       -10.0000000000000       0.000000000000000E+000
   120.000000000000       -10.0000000000000       0.000000000000000E+000
   125.000000000000       -10.0000000000000       0.000000000000000E+000
   130.000000000000       -10.0000000000000       0.000000000000000E+000
   135.000000000000       -10.0000000000000       0.000000000000000E+000
   140.000000000000       -10.0000000000000       0.000000000000000E+000
   145.000000000000       -10.0000000000000       0.000000000000000E+000
   95.0000000000000        10.0000000000000       0.000000000000000E+000
   90.0000000000000        10.0000000000000       0.000000000000000E+000
   85.0000000000000        10.0000000000000       0.000000000000000E+000
   80.0000000000000        10.0000000000000       0.000000000000000E+000
   75.0000000000000        10.0000000000000       0.000000000000000E+000
   70.0000000000000        10.0000000000000       0.000000000000000E+000
   65.0000000000000        10.0000000000000       0.000000000000000E+000
   60.0000000000000        10.0000000000000       0.000000000000000E+000
   55.0000000000000        10.0000000000000       0.000000000000000E+000
   50.0000000000000        5.00000000000000       0.000000000000000E+000
   50.0000000000000       0.000000000000000E+000  0.000000000000000E+000
   50.0000000000000       -5.00000000000000       0.000000000000000E+000
   55.0000000000000       -10.0000000000000       0.000000000000000E+000
   60.0000000000000       -10.0000000000000       0.000000000000000E+000
   65.0000000000000       -10.0000000000000       0.000000000000000E+000
   70.0000000000000       -10.0000000000000       0.000000000000000E+000
   75.0000000000000       -10.0000000000000       0.000000000000000E+000
   80.0000000000000       -10.0000000000000       0.000000000000000E+000
   85.0000000000000       -10.0000000000000       0.000000000000000E+000
   90.0000000000000       -10.0000000000000       0.000000000000000E+000
   95.0000000000000       -10.0000000000000       0.000000000000000E+000
   45.0000000000000        10.0000000000000       0.000000000000000E+000
   40.0000000000000        10.0000000000000       0.000000000000000E+000
   35.0000000000000        10.0000000000000       0.000000000000000E+000
   30.0000000000000        10.0000000000000       0.000000000000000E+000
   25.0000000000000        10.0000000000000       0.000000000000000E+000
   20.0000000000000        10.0000000000000       0.000000000000000E+000
   15.0000000000000        10.0000000000000       0.000000000000000E+000
   10.0000000000000        10.0000000000000       0.000000000000000E+000
   5.00000000000000        10.0000000000000       0.000000000000000E+000
  0.000000000000000E+000   5.00000000000000       0.000000000000000E+000
  0.000000000000000E+000  0.000000000000000E+000  0.000000000000000E+000
  0.000000000000000E+000  -5.00000000000000       0.000000000000000E+000
   5.00000000000000       -10.0000000000000       0.000000000000000E+000
   10.0000000000000       -10.0000000000000       0.000000000000000E+000
   15.0000000000000       -10.0000000000000       0.000000000000000E+000
   20.0000000000000       -10.0000000000000       0.000000000000000E+000
   25.0000000000000       -10.0000000000000       0.000000000000000E+000
   30.0000000000000       -10.0000000000000       0.000000000000000E+000
   35.0000000000000       -10.0000000000000       0.000000000000000E+000
   40.0000000000000       -10.0000000000000       0.000000000000000E+000
   45.0000000000000       -10.0000000000000       0.000000000000000E+000
  -5.00000000000000        10.0000000000000       0.000000000000000E+000
  -10.0000000000000        10.0000000000000       0.000000000000000E+000
  -15.0000000000000        10.0000000000000       0.000000000000000E+000
  -20.0000000000000        10.0000000000000       0.000000000000000E+000
  -25.0000000000000        10.0000000000000       0.000000000000000E+000
  -30.0000000000000        10.0000000000000       0.000000000000000E+000
  -35.0000000000000        10.0000000000000       0.000000000000000E+000
  -40.0000000000000        10.0000000000000       0.000000000000000E+000
  -45.0000000000000        10.0000000000000       0.000000000000000E+000
  -50.0000000000000        5.00000000000000       0.000000000000000E+000
  -50.0000000000000       0.000000000000000E+000  0.000000000000000E+000
  -50.0000000000000       -5.00000000000000       0.000000000000000E+000
  -45.0000000000000       -10.0000000000000       0.000000000000000E+000
  -40.0000000000000       -10.0000000000000       0.000000000000000E+000
  -35.0000000000000       -10.0000000000000       0.000000000000000E+000
  -30.0000000000000       -10.0000000000000       0.000000000000000E+000
  -25.0000000000000       -10.0000000000000       0.000000000000000E+000
  -20.0000000000000       -10.0000000000000       0.000000000000000E+000
  -15.0000000000000       -10.0000000000000       0.000000000000000E+000
  -10.0000000000000       -10.0000000000000       0.000000000000000E+000
  -5.00000000000000       -10.0000000000000       0.000000000000000E+000
  -55.0000000000000        10.0000000000000       0.000000000000000E+000
  -60.0000000000000        10.0000000000000       0.000000000000000E+000
  -65.0000000000000        10.0000000000000       0.000000000000000E+000
  -70.0000000000000        10.0000000000000       0.000000000000000E+000
[...]
 CELL_DATA        2884
 POINT_DATA        4085
 FIELD Result            2
 Displacement_Load_Case01            3        4085 double
 -5.905905434368934E-002  1.275145016621651E-003 -0.145990968771861     
 -5.905970004195978E-002 -1.276767575704678E-003 -0.145993419467410     
 -4.758658869386632E-002  1.121359433462574E-003 -0.204554046319536     
 -4.758713411439024E-002 -1.123470299194942E-003 -0.204550181019562     
 -5.739895357345264E-003  9.786269056190752E-004 -0.151053209002314     
 -5.740474215308895E-003 -9.784986432785617E-004 -0.151050153032179     
 -1.209817055145977E-002  3.502471818861504E-004 -9.258565787240058E-002
 -1.209816118907048E-002 -3.491191550109309E-004 -9.258410620526195E-002
 -2.100147702331719E-006 -4.087506191155717E-003 -7.924126847773709E-003
 -2.469213382249246E-006  4.087550397922862E-003 -7.924185760598453E-003
  1.211496765452887E-002  3.226205139276644E-004 -9.266570981273982E-002
  1.213070218491157E-002 -3.788076486487827E-004 -9.267461918427031E-002
  5.762144277224791E-003  9.194557560021568E-004 -0.151205877937727     
  5.766051435496023E-003 -1.043658519279758E-003 -0.151218930656428     
  4.771054811896767E-002  1.035019367385695E-003 -0.204952991480917     
  4.772268681147726E-002 -1.218222263464902E-003 -0.204969545633882     
  5.919183481472898E-002 -1.373547028451815E-003 -0.146525245918445     
  5.918571944111409E-002  1.155823591629370E-003 -0.146556460483061     
  5.429413560867342E-004 -5.900794555251861E-004 -5.060422258053283E-004
  5.262616943646221E-004  3.974704692258601E-004 -5.374655631068660E-004
 -2.484957215503306E-004  2.082023888108300E-004 -2.385644423047896E-004
 -2.484866892185610E-004 -2.081896944871806E-004 -2.385691093540044E-004
 -4.489147077336172E-002  6.382544585608600E-004 -0.318888260082029     
 -4.374318705021294E-002 -8.157730198607111E-007 -0.416044259174951     
 -4.489172853521309E-002 -6.398838286090017E-004 -0.318889586089828     
 -5.053762087261707E-002 -2.283892187396164E-003  -4.52783886599134     
 -4.777343000948021E-002 -9.958379063666673E-004  -14.7518450849082     
 -4.686598235854193E-002 -7.202805495071377E-005  -25.7084700086720     
 -4.635940509566107E-002  2.833485769655694E-004  -33.7471320407716     
 -4.583350270276718E-002  3.704356111080008E-004  -36.6770956117427     
 -4.522598295330806E-002  4.125757422915098E-004  -33.7672658760814     
 -4.458483455124295E-002  5.696644601226735E-004  -25.7466218633680     
 -4.412130123653198E-002  9.936748020890776E-004  -14.8038484026245     
 -4.451784851216658E-002  1.589733039763928E-003  -4.58731642293645     
 -4.101131343079967E-002  5.606775448370726E-004 -0.504486874513922     
 -4.047836133523697E-002 -1.065239371617514E-006 -0.671692360744996     
 -4.101151813509749E-002 -5.628032240747267E-004 -0.504484755940488     
 -4.451822592191632E-002 -1.592062811182568E-003  -4.58731269533410     
 -4.412154825609504E-002 -9.961488973715643E-004  -14.8038448196875     
 -4.458496134133109E-002 -5.722244741229293E-004  -25.7466184199018     
 -4.522599342838347E-002 -4.151638121016216E-004  -33.7672625760835     
 -4.583340072034037E-002 -3.729944984424299E-004  -36.6770924522728     
 -4.635919460374784E-002 -2.858230269834688E-004  -33.7471290237601     
 -4.686566738978051E-002  6.969133258092652E-005  -25.7084671331741     
 -4.777301455466876E-002  9.936890139969172E-004  -14.7518423509069     
 -5.053710336141246E-002  2.281977989499492E-003  -4.52783627440510     
 -4.075771976306559E-002  6.617673923285815E-004  -4.58067978460988     
 -3.660230567577769E-002  1.262619416824284E-003  -14.7946473814876     
 -3.331008231389830E-002  1.696575350644929E-003  -25.7379859069250     
 -3.021192349715707E-002  1.869375160544945E-003  -33.7614952023939     
 -2.712888222241022E-002  1.908192916997624E-003  -36.6754667282940     
 -2.405088213790475E-002  1.861506397676774E-003  -33.7501040380455     
 -2.096095894853119E-002  1.657057711767297E-003  -25.7153725832189     
 -1.764085132046222E-002  1.139788112933741E-003  -14.7611804719934     
 -1.328864314334806E-002  4.228049712901695E-004  -4.53684667071141     
 -1.360433596471407E-002  4.891701093636406E-004 -0.538174051652633     
 -1.424172390868859E-002  6.847052318699996E-008 -0.752710031190999     
 -1.360457482689505E-002 -4.890352984661464E-004 -0.538172281916295     
 -1.328915840878996E-002 -4.229326757674017E-004  -4.53684353138286     
 -1.764133529782352E-002 -1.140151342760024E-003  -14.7611772534772     
 -2.096142266079868E-002 -1.657646709708612E-003  -25.7153692821246     
 -2.405133190658317E-002 -1.862313595072811E-003  -33.7501006576225     
 -2.712932437562978E-002 -1.909212884222001E-003  -36.6754632652836     
 -3.021236439766655E-002 -1.870605681356246E-003  -33.7614916601197     
 -3.331052826806041E-002 -1.698017436632846E-003  -25.7379822819599     
 -3.660276296032789E-002 -1.264275863365564E-003  -14.7946436774171     
 -4.075820081627100E-002 -6.636429008178905E-004  -4.58067599755275     
 -1.003014478150095E-002  1.532742537049683E-003  -4.52634587267579     
 -1.112354978989639E-002  8.160990232096395E-004  -14.7393744598460     
 -1.118551155703347E-002  3.004710040721707E-004  -25.6817059972674     
 -1.102045668427399E-002  9.888969406365911E-005  -33.7043073900910     
 -1.085255185475542E-002  5.157502746800774E-005  -36.6174778330602     
 -1.070576673044502E-002  6.568571545017001E-005  -33.6915384125335     
 -1.057566268418511E-002  1.350615773608518E-004  -25.6564357730081     
 -1.052351777282232E-002  3.023688283510158E-004  -14.7021517868054     
 -1.080148679124169E-002  5.313185207734612E-004  -4.47796292065512     
 -9.590152815163552E-003  1.761297369566714E-004 -0.530652020167061     
 -9.387019099355475E-003  5.725446433539368E-007 -0.772578169159368     
 -9.590136565518449E-003 -1.749888225377137E-004 -0.530650977530625     
 -1.080150106035949E-002 -5.301789197702811E-004  -4.47796121598087     
 -1.052356810946231E-002 -3.012356508256412E-004  -14.7021499335283     
 -1.057575569549100E-002 -1.339552581339117E-004  -25.6564337674843     
 -1.070590782863813E-002 -6.462921245856508E-005  -33.6915362583431     
 -1.085274648716832E-002 -5.059372851935576E-005  -36.6174755265231     
 -1.102071029692569E-002 -9.801173244046632E-005  -33.7043049350493     
 -1.118582954486976E-002 -2.997272532084337E-004  -25.6817033896739     
 -1.112393757436133E-002 -8.155220529086131E-004  -14.7393717040154     
 -1.003061251781895E-002 -1.532366586168738E-003  -4.52634296386684     
 -9.618876673135664E-003  1.772422034012531E-004  -4.46703961022686     
 -8.159208039964734E-003  4.060879453240282E-004  -14.6771563025941     
 -7.027144974500310E-003  5.711411061860373E-004  -25.6151279186744     
 -5.965583843961807E-003  6.396351290446708E-004  -33.6325843858116     
 -4.906510477722773E-003  6.699065325254263E-004  -36.5404349520471     
 -3.861157576761598E-003  6.992475606215754E-004  -33.6096381627143     
 -2.887446669743049E-003  7.138722916000443E-004  -25.5707388729971     
 -2.071742165567954E-003  5.266317508768867E-004  -14.6143348503046     
 -1.358649408778027E-003 -9.885087311195187E-005  -4.39029183300863     
  2.488036353524541E-006 -1.378628186871557E-003 -0.462805763497221     
  3.425283407223235E-006  1.157710872275950E-008 -0.713714098289395     
  3.506371016016509E-006  1.378645352554268E-003 -0.462805534543721     
 -1.358342686083117E-003  9.873302026819194E-005  -4.39029172649477     
 -2.071346627429701E-003 -5.264622759867982E-004  -14.6143345862287     
 -2.887085365327376E-003 -7.134865191271863E-004  -25.5707384447853     
 -3.860837006394043E-003 -6.986859356639922E-004  -33.6096375764624     
 -4.906232246304322E-003 -6.691901820089400E-004  -36.5404342019332     
 -5.965350920653680E-003 -6.387857466985114E-004  -33.6325834774666     
 -7.026960661755269E-003 -5.701821019231510E-004  -25.6151268465943     
 -8.159075689106952E-003 -4.050442199192152E-004  -14.6771550722318     
 -9.618800900689218E-003 -1.761399887728606E-004  -4.46703821600061     
  1.360324506251633E-003 -1.002971365678687E-004  -4.39029317711343     
  2.075747115010466E-003  5.246482110426727E-004  -14.6143422906373     
  2.892642738190057E-003  7.105542451713648E-004  -25.5707559254178     
  3.867375619224939E-003  6.936892755738988E-004  -33.6096670583027     
  4.913884658030438E-003  6.614617990110600E-004  -36.5404767384806     
  5.974284661005236E-003  6.278591820729082E-004  -33.6326388349569     
  7.037331270731509E-003  5.556876187530520E-004  -25.6151936944913     
  8.171072843305368E-003  3.866548752401837E-004  -14.6772308242226     
  9.632784632037792E-003  1.536193924442598E-004  -4.46711928701489     
  9.609222503934358E-003  1.480063602470070E-004 -0.530907614963875     
  9.409840563474834E-003 -2.805967873460595E-005 -0.772887718946083     
  9.616985978302111E-003 -2.041428114092943E-004 -0.530911860843121     
  9.648225013432940E-003 -2.015814423298578E-004  -4.46712731657001     
  8.185926112923817E-003 -4.266101328786066E-004  -14.6772379630916     
  7.051324210563159E-003 -5.880011032440226E-004  -25.6151999501081     
  5.987148630198417E-003 -6.530291212749075E-004  -33.6326442035633     
  4.925351058687593E-003 -6.801199139066974E-004  -36.5404812201306     
  3.877176171739686E-003 -7.066014111194387E-004  -33.6096706566596     
  2.900510386384714E-003 -7.186223580309757E-004  -25.5707586330628     
  2.081419203107034E-003 -5.288796678212301E-004  -14.6143441188339     
  1.363430992743204E-003  9.877758547947326E-005  -4.39029411051230     
  1.081862494109628E-002  4.996242600743212E-004  -4.47804364018519     
  1.054184678172424E-002  2.663293730096183E-004  -14.7022374144642     
  1.059555100499527E-002  9.478709445218789E-005  -25.6565295071809     
  1.072741624197649E-002  2.137964892158865E-005  -33.6916421389509     
  1.087614228949068E-002  3.495643398133626E-006  -36.6175925761548     
  1.104619349331189E-002  4.743643608585466E-005  -33.7044329876839     
  1.121353463917304E-002  2.463555486876129E-004  -25.6818416368174     
  1.115345900721395E-002  7.604670370822361E-004  -14.7395182994631     
  1.005971243302070E-002  1.476519391558435E-003  -4.52649566657106     
  1.364518921629568E-002  4.284816265601597E-004 -0.538682892572875     
  1.428587916205241E-002 -6.212639379959284E-005 -0.753316813131508     
  1.364899706554587E-002 -5.527217817235072E-004 -0.538689265484012     
  1.006703079469097E-002 -1.597243439181680E-003  -4.52650830571895     
  1.116295514242019E-002 -8.764001180882276E-004  -14.7395305232310     
  1.122476302294947E-002 -3.566378900020212E-004  -25.6818534465199     
  1.105888421957037E-002 -1.513058476375718E-004  -33.7044443827576     
  1.089002578771956E-002 -1.002868341390935E-004  -36.6176035563685     
  1.074222091280460E-002 -1.105639668019261E-004  -33.6916527053369     
  1.061100473589884E-002 -1.759718982874844E-004  -25.6565396579002     
  1.055767752785192E-002 -3.392571985399612E-004  -14.7022471521838     
  1.083455620473479E-002 -5.641728200497641E-004  -4.47805296133625     
  1.332844543286041E-002  3.607640710582419E-004  -4.53700799207135     
  1.769122496796559E-002  1.077317144804233E-003  -14.7613620847470     
  2.101967485285544E-002  1.593333415243390E-003  -25.7155830374408     
  2.411753491544392E-002  1.795486006282053E-003  -33.7503483259712     
  2.720359616782826E-002  1.839260502463809E-003  -36.6757471289913     
  3.029487655054453E-002  1.797192420487771E-003  -33.7618107608533     
  3.340145090872491E-002  1.620853868878200E-003  -25.7383333855342     
  3.670248467975677E-002  1.182984040262576E-003  -14.7950206911981     
  4.086797111523836E-002  5.780316262470980E-004  -4.58107104913489     
  4.112966257277640E-002  4.721792003970926E-004 -0.505435700022449     
  4.059895670653350E-002 -9.168387440054189E-005 -0.672760461514341     
  4.113573082492786E-002 -6.555063540527028E-004 -0.505443887555039     
  4.088070451465890E-002 -7.545844466748862E-004  -4.58108725163743     
  3.671546971304546E-002 -1.352664563650843E-003  -14.7950365446822     
  3.341440426819250E-002 -1.783616887463961E-003  -25.7383488875430     
  3.030752897471907E-002 -1.953123853466070E-003  -33.7618259140300     
  2.721567866550632E-002 -1.988578158228035E-003  -36.6757619304211     
  2.412877889586372E-002 -1.938542147582707E-003  -33.7503627788730     
  2.102981372654708E-002 -1.730615424928114E-003  -25.7155971382650     
  1.769999170505000E-002 -1.209407910401830E-003  -14.7613758374072     
  1.333539728197101E-002 -4.883424013926523E-004  -4.53702139221089     
  4.464250998470119E-002  1.500857245658403E-003  -4.58772393471567     
  4.425030947140737E-002  9.009945805691468E-004  -14.8042735886324     
  4.471946407155455E-002  4.735673766772377E-004  -25.7470705562064     
  4.536667077021981E-002  3.136403030704294E-004  -33.7677400267844     
  4.598053853022521E-002  2.692107768410573E-004  -36.6775946206799     
  4.651316435903168E-002  1.806805001807447E-004  -33.7476521415960     
  4.702661610018444E-002 -1.743634602060516E-004  -25.7090057109854     
  4.793916599076654E-002 -1.094622877001231E-003  -14.7523885588932     
  5.069990385929652E-002 -2.376809638372872E-003  -4.52838150619248     
  4.508868894778734E-002 -7.425739922730105E-004 -0.320189904599891     
  4.394505567775255E-002 -1.091755854921117E-004 -0.417439720508110     
  4.508737728661167E-002  5.243712426208258E-004 -0.320205506091301     
  5.069786803676979E-002  2.157503218832597E-003  -4.52841127137528     
  4.794000740028036E-002  8.756275719013247E-004  -14.7524168418733     
  4.702987430446950E-002 -4.311977999280117E-005  -25.7090325365146     
  4.651855429731426E-002 -3.955490506602759E-004  -33.7476774923293     
  4.598777903578621E-002 -4.804685996013527E-004  -36.6776185068025     
  4.537547867152730E-002 -5.204326636253499E-004  -33.7677624451508     
  4.472955581034686E-002 -6.751815352247272E-004  -25.7470915029667     
  4.426140171546449E-002 -1.096856511994715E-003  -14.8042930746568     
  4.465430585974946E-002 -1.690532185384112E-003  -4.58774194197388     
  4.645489578079619E-002 -3.849159334759840E-004  -4.52352749075156     
  3.945129364074315E-002 -1.669742362699419E-003  -14.7288887786584     
  3.429597459938701E-002 -2.592952928964355E-003  -25.6569927287710     
  2.954384646365592E-002 -2.953953574933563E-003  -33.6609139099375     
  2.478975867681691E-002 -3.047972412303627E-003  -36.5539935373421     
  1.999586968569902E-002 -3.064857438305202E-003  -33.6087516147494     
  1.521770236209044E-002 -3.054423336368992E-003  -25.5584322523821     
  1.051605813892309E-002 -2.920750191639567E-003  -14.5953255123910     
  5.831472858058788E-003 -2.444265989244547E-003  -4.37229790967442     
  9.108653522539075E-004 -2.570844949335954E-004 -2.252954055914790E-003
  1.012467517852780E-003 -9.634648714097361E-005 -2.192011839018643E-003
  9.024881912328179E-004  6.440805655114975E-005 -2.268703151893301E-003
  5.818231249233675E-003  2.245582799533158E-003  -4.37232931580699     
  1.050566587477404E-002  2.716922331504340E-003  -14.5953568942794     
  1.520968928902094E-002  2.846769699642020E-003  -25.5584636175159     
  1.998976094324095E-002  2.854445105256712E-003  -33.6087829550957     
  2.478506975710212E-002  2.835634982473904E-003  -36.5540248615760     
  2.954009342945170E-002  2.740279689730805E-003  -33.6609452086375     
  3.429267542843562E-002  2.378287601550479E-003  -25.6570240122165     
  3.944796948548874E-002  1.454229612746185E-003  -14.7289200355785     
  4.645089934686476E-002  1.684895264534834E-004  -4.52355873362018     
 -4.625444789379266E-002  2.823295520669052E-004  -4.52300736876096     
 -3.920961716253797E-002  1.573761263867133E-003  -14.7283863826771     
 -3.402142182973347E-002  2.501837966806987E-003  -25.6565120931316     
 -2.923783319982220E-002  2.865309293446345E-003  -33.6604601191119     
 -2.445170766814432E-002  2.961617240981500E-003  -36.5535707152197     
 -1.962596619775623E-002  2.983174672811282E-003  -33.6083634886313     
 -1.482099074226235E-002  2.981760519272903E-003  -25.5580799725372     
 -1.011092966550075E-002  2.853425863083773E-003  -14.5950081673097     
 -5.457864636282277E-003  2.357115886025197E-003  -4.37201016236767     
 -3.936643222872288E-004  7.114392476082493E-005 -9.661454005526878E-004
 -4.369975136726853E-004  4.810583623545314E-009 -9.353745037469451E-004
 -3.936634081758013E-004 -7.113341264459270E-005 -9.661459796804312E-004
 -5.457928608341516E-003 -2.357136485624624E-003  -4.37201040766376     
 -1.011106229080697E-002 -2.853498901306960E-003  -14.5950086611975     
 -1.482119020835519E-002 -2.981920238674422E-003  -25.5580807087639     
 -1.962623046571528E-002 -2.983453908981902E-003  -33.6083644717933     
 -2.445203445505286E-002 -2.962047896574813E-003  -36.5535719423367     
 -2.923822020635807E-002 -2.865922052485572E-003  -33.6604615915709     
 -3.402186669203090E-002 -2.502662404623851E-003  -25.6565138111222     
 -3.921011750070987E-002 -1.574824555862706E-003  -14.7283883444174     
 -4.625500683127273E-002 -2.836565662437074E-004  -4.52300957769345     
 -4.768192830936067E-002  2.215778368649629E-003  -4.71277179421023     
 -4.555028990073335E-002 -9.639057361640155E-007  -4.81674460457667     
 -4.768217547038942E-002 -2.217709498847632E-003  -4.71277319879506     
 -4.767284887975716E-002  9.417204388540042E-004  -14.9478663753543     
 -4.711426461157346E-002 -1.088372971601360E-006  -15.0597785381372     
 -4.767305441918436E-002 -9.438903451234392E-004  -14.9478678588095     
 -4.716675945084610E-002  1.476853056943617E-004  -25.9153022598006     
 -4.715190279679328E-002 -1.183788728599445E-006  -26.0356005925139     
 -4.716691484747563E-002 -1.500452005285691E-004  -25.9153038225501     
 -4.655110254240186E-002 -1.350555001594062E-004  -33.9653632810311     
 -4.662400103083488E-002 -1.253228798936797E-006  -34.0936141574127     
 -4.655120554437502E-002  1.325570713469362E-004  -33.9653649223382     
 -4.593152579309574E-002 -1.934774003446002E-004  -36.9074913691257     
 -4.599049152311601E-002 -1.296023876943018E-006  -37.0431831111769     
 -4.593157451302833E-002  1.908936405631535E-004  -36.9074930906676     
 -4.532618000999555E-002 -2.180419375913973E-004  -34.0109150667256     
 -4.537135225039952E-002 -1.311226356224823E-006  -34.1530874353430     
 -4.532617247046412E-002  2.154281103162194E-004  -34.0109168665003     
 -4.472410946183795E-002 -3.415699432865356E-004  -26.0042996686151     
 -4.471952248090364E-002 -1.297807738885145E-006  -26.1525046763787     
 -4.472404358988320E-002  3.389831945357924E-004  -26.0043015496422     
 -4.407311395747691E-002 -7.058981717476130E-004  -15.0761132681196     
 -4.381361461289059E-002 -1.254415702412075E-006  -15.2298779746044     
 -4.407298809767753E-002  7.033978688921371E-004  -15.0761152270444     
 -4.319187938424321E-002 -1.295546422743074E-003  -4.87391984810200     
 -4.220210778555240E-002 -1.175539594470344E-006  -5.03388328896954     
 -4.319169892546315E-002  1.293193188969320E-003  -4.87392188945103     
 -3.943549388454798E-002  1.675882248027254E-004  -4.88874557153936     
 -3.844616490119107E-002 -9.429166682795385E-007  -5.06017524915087     
 -3.943525966896533E-002 -1.694635129580552E-004  -4.88874765653237     
 -3.655867195852042E-002 -4.263371189123181E-004  -15.1098214149286     
 -3.629974764057323E-002 -8.269251889752788E-007  -15.2864978594229     
 -3.655843943420659E-002  4.246826327239745E-004  -15.1098234621136     
 -3.345088935706417E-002 -7.988928908306490E-004  -26.0600373084397     
 -3.344167344155845E-002 -7.197357470576569E-007  -26.2427044139060     
 -3.345066249461171E-002  7.974528098224334E-004  -26.0600393220318     
 -3.029039850757653E-002 -9.374594428387043E-004  -34.0909469573679     