# vtk DataFile Version 3.0
 Bridge                                                                         
  
ASCII
DATASET UNSTRUCTURED_GRID
 POINTS        4087 double
   200.000000000000       -10.0000000000000       0.000000000000000E+000
   200.000000000000        10.0000000000000       0.000000000000000E+000
   150.000000000000        10.0000000000000       0.000000000000000E+000
   150.000000000000       -10.0000000000000       0.000000000000000E+000
   100.000000000000        10.0000000000000       0.000000000000000E+000
   100.000000000000       -10.0000000000000       0.000000000000000E+000
   50.0000000000000        10.0000000000000       0.000000000000000E+000
   50.0000000000000       -10.0000000000000       0.000000000000000E+000
  0.000000000000000E+000   10.0000000000000       0.000000000000000E+000
  0.000000000000000E+000  -10.0000000000000       0.000000000000000E+000
  -50.0000000000000        10.0000000000000       0.000000000000000E+000
  -50.0000000000000       -10.0000000000000       0.000000000000000E+000
  -100.000000000000        10.0000000000000       0.000000000000000E+000
  -100.000000000000       -10.0000000000000       0.000000000000000E+000
  -150.000000000000        10.0000000000000       0.000000000000000E+000
  -150.000000000000       -10.0000000000000       0.000000000000000E+000
  -200.000000000000        10.0000000000000       0.000000000000000E+000
  -200.000000000000       -10.0000000000000       0.000000000000000E+000
  -250.000000000000        10.0000000000000       0.000000000000000E+000
  -250.000000000000       -10.0000000000000       0.000000000000000E+000
   250.000000000000       -10.0000000000000       0.000000000000000E+000
   250.000000000000        10.0000000000000       0.000000000000000E+000
   200.000000000000       -5.00000000000000       0.000000000000000E+000
   200.000000000000       0.000000000000000E+000  0.000000000000000E+000
   200.000000000000        5.00000000000000       0.000000000000000E+000
   195.000000000000        10.0000000000000       0.000000000000000E+000
   190.000000000000        10.0000000000000       0.000000000000000E+000
   185.000000000000        10.0000000000000       0.000000000000000E+000
   180.000000000000        10.0000000000000       0.000000000000000E+000
   175.000000000000        10.0000000000000       0.000000000000000E+000
   170.000000000000        10.0000000000000       0.000000000000000E+000
   165.000000000000        10.0000000000000       0.000000000000000E+000
   160.000000000000        10.0000000000000       0.000000000000000E+000
   155.000000000000        10.0000000000000       0.000000000000000E+000
   150.000000000000        5.00000000000000       0.000000000000000E+000
   150.000000000000       0.000000000000000E+000  0.000000000000000E+000
   150.000000000000       -5.00000000000000       0.000000000000000E+000
   155.000000000000       -10.0000000000000       0.000000000000000E+000
   160.000000000000       -10.0000000000000       0.000000000000000E+000
   165.000000000000       -10.0000000000000       0.000000000000000E+000
   170.000000000000       -10.0000000000000       0.000000000000000E+000
   175.000000000000       -10.0000000000000       0.000000000000000E+000
   180.000000000000       -10.0000000000000       0.000000000000000E+000
   185.000000000000       -10.0000000000000       0.000000000000000E+000
   190.000000000000       -10.0000000000000       0.000000000000000E+000
   195.000000000000       -10.0000000000000       0.000000000000000E+000
   145.000000000000        10.0000000000000       0.000000000000000E+000
   140.000000000000        10.0000000000000       0.000000000000000E+000
   135.000000000000        10.0000000000000       0.000000000000000E+000
   130.000000000000        10.0000000000000       0.000000000000000E+000
   125.000000000000        10.0000000000000       0.000000000000000E+000
   120.000000000000        10.0000000000000       0.000000000000000E+000
   115.000000000000        10.0000000000000       0.000000000000000E+000
   110.000000000000        10.0000000000000       0.000000000000000E+000
   105.000000000000        10.0000000000000       0.000000000000000E+000
   100.000000000000        5.00000000000000       0.000000000000000E+000
   100.000000000000       0.000000000000000E+000  0.000000000000000E+000
   100.000000000000       -5.00000000000000       0.000000000000000E+000
   105.000000000000       -10.0000000000000       0.000000000000000E+000
   110.000000000000       -10.0000000000000       0.000000000000000E+000
   115.000000000000       -10.0000000000000       0.000000000000000E+000
   120.000000000000       -10.0000000000000       0.000000000000000E+000
   125.000000000000       -10.0000000000000       0.000000000000000E+000
   130.000000000000       -10.0000000000000       0.000000000000000E+000
   135.000000000000       -10.0000000000000       0.000000000000000E+000
   140.000000000000       -10.0000000000000       0.000000000000000E+000
   145.000000000000       -10.0000000000000       0.000000000000000E+000
   95.0000000000000        10.0000000000000       0.000000000000000E+000
   90.0000000000000        10.0000000000000       0.000000000000000E+000
   85.0000000000000        10.0000000000000       0.000000000000000E+000
   80.0000000000000        10.0000000000000       0.000000000000000E+000
   75.0000000000000        10.0000000000000       0.000000000000000E+000
   70.0000000000000        10.0000000000000       0.000000000000000E+000
   65.0000000000000        10.0000000000000       0.000000000000000E+000
   60.0000000000000        10.0000000000000       0.000000000000000E+000
   55.0000000000000        10.0000000000000       0.000000000000000E+000
   50.0000000000000        5.00000000000000       0.000000000000000E+000
   50.0000000000000       0.000000000000000E+000  0.000000000000000E+000
   50.0000000000000       -5.00000000000000       0.000000000000000E+000
   55.0000000000000       -10.0000000000000       0.000000000000000E+000
   60.0000000000000       -10.0000000000000       0.000000000000000E+000
   65.0000000000000       -10.0000000000000       0.000000000000000E+000
   70.0000000000000       -10.0000000000000       0.000000000000000E+000
   75.0000000000000       -10.0000000000000       0.000000000000000E+000
   80.0000000000000       -10.0000000000000       0.000000000000000E+000
   85.0000000000000       -10.0000000000000       0.000000000000000E+000
   90.0000000000000       -10.0000000000000       0.000000000000000E+000
   95.0000000000000       -10.0000000000000       0.000000000000000E+000
   45.0000000000000        10.0000000000000       0.000000000000000E+000
   40.0000000000000        10.0000000000000       0.000000000000000E+000
   35.0000000000000        10.0000000000000       0.000000000000000E+000
   30.0000000000000        10.0000000000000       0.000000000000000E+000
   25.0000000000000        10.0000000000000       0.000000000000000E+000
   20.0000000000000        10.0000000000000       0.000000000000000E+000
   15.0000000000000        10.0000000000000       0.000000000000000E+000
   10.0000000000000        10.0000000000000       0.000000000000000E+000
   5.00000000000000        10.0000000000000       0.000000000000000E+000
  0.000000000000000E+000   5.00000000000000       0.000000000000000E+000
  0.000000000000000E+000  0.000000000000000E+000  0.000000000000000E+000
  0.000000000000000E+000  -5.00000000000000       0.000000000000000E+000
   5.00000000000000       -10.0000000000000       0.000000000000000E+000
   10.0000000000000       -10.0000000000000       0.000000000000000E+000
   15.0000000000000       -10.0000000000000       0.000000000000000E+000
   20.0000000000000       -10.0000000000000       0.000000000000000E+000
   25.0000000000000       -10.0000000000000       0.000000000000000E+000
   30.0000000000000       -10.0000000000000       0.000000000000000E+000
   35.0000000000000       -10.0000000000000       0.000000000000000E+000
   40.0000000000000       -10.0000000000000       0.000000000000000E+000
   45.0000000000000       -10.0000000000000       0.000000000000000E+000
  -5.00000000000000        10.0000000000000       0.000000000000000E+000
  -10.0000000000000        10.0000000000000       0.000000000000000E+000
  -15.0000000000000        10.0000000000000       0.000000000000000E+000
  -20.0000000000000        10.0000000000000       0.000000000000000E+000
  -25.0000000000000        10.0000000000000       0.000000000000000E+000
  -30.0000000000000        10.0000000000000       0.000000000000000E+000
  -35.0000000000000        10.0000000000000       0.000000000000000E+000
  -40.0000000000000        10.0000000000000       0.000000000000000E+000
  -45.0000000000000        10.0000000000000       0.000000000000000E+000
  -50.0000000000000        5.00000000000000       0.000000000000000E+000
  -50.0000000000000       0.000000000000000E+000  0.000000000000000E+000
  -50.0000000000000       -5.00000000000000       0.000000000000000E+000
  -45.0000000000000       -10.0000000000000       0.000000000000000E+000
  -40.0000000000000       -10.0000000000000       0.000000000000000E+000
  -35.0000000000000       -10.0000000000000       0.000000000000000E+000
  -30.0000000000000       -10.0000000000000       0.000000000000000E+000
  -25.0000000000000       -10.0000000000000       0.000000000000000E+000
  -20.0000000000000       -10.0000000000000       0.000000000000000E+000
  -15.0000000000000       -10.0000000000000       0.000000000000000E+000
  -10.0000000000000       -10.0000000000000       0.000000000000000E+000
  -5.00000000000000       -10.0000000000000       0.000000000000000E+000
  -55.0000000000000        10.0000000000000       0.000000000000000E+000
  -60.0000000000000        10.0000000000000       0.000000000000000E+000
  -65.0000000000000        10.0000000000000       0.000000000000000E+000
  -70.0000000000000        10.0000000000000       0.000000000000000E+000
[...]
 CELL_DATA        2884
 POINT_DATA        4087
 FIELD Result            2
 Displacement_Load_Case01            3        4087 double
 -6.573186353763770E-003  7.268962098109574E-005 -8.298598112352933E-002
 -6.572761037155954E-003 -7.085243571520874E-005 -8.298573826713099E-002
 -2.925322703397246E-003  1.335380912763535E-004 -0.113299736470998     
 -2.925329120542705E-003 -1.299943990439334E-004 -0.113302068640925     
 -2.840692509719093E-004  8.882190290106386E-005 -0.103767442360701     
 -2.825718283474356E-004 -8.840123590683597E-005 -0.103770009956430     
 -2.221526710988326E-004  8.151235691642281E-006 -6.538647191836862E-002
 -2.174138183016533E-004 -2.275222615557804E-005 -6.539185885255956E-002
  1.111628764029685E-004 -5.193507547227896E-005 -1.327075673653882E-002
  1.201015167839469E-004  3.521220611020263E-006 -1.327147504415643E-002
  4.618486312429422E-004 -3.826709724895123E-005 -6.546654226936940E-002
  4.754577070642306E-004 -7.080260568397563E-005 -6.546890062401450E-002
  5.331242764780229E-004  2.899337427679853E-006 -0.103963509280555     
  5.443790072219060E-004 -1.785533208305579E-004 -0.103965633392853     
  3.240608016006688E-003  2.257392102279174E-005 -0.113852616961966     
  3.247491667640636E-003 -2.480070874781657E-004 -0.113854513353456     
  6.939103029630330E-003 -1.832973358996872E-004 -8.390495941611580E-002
  6.934658428001375E-003 -5.266113963967691E-005 -8.393221090791339E-002
  9.861870000801585E-004 -1.983082355900158E-004 -1.825971936918788E-003
  9.703144849755838E-004  8.311837766496013E-006 -1.857177170082916E-003
 -4.469774233055980E-004  5.174004583314634E-005 -7.975294296896832E-004
 -4.469485004662582E-004 -5.170273853525316E-005 -7.975285187217548E-004
 -4.724039298644560E-003  3.734454436360357E-005 -9.057993199508937E-002
 -4.574063128399241E-003  9.186071293199833E-007 -9.336243169877988E-002
 -4.723821464154898E-003 -3.550735156786514E-005 -9.057980273088788E-002
 -5.307346220750488E-003 -2.044756704012448E-004 -8.976564793209042E-002
 -4.793019173026237E-003 -3.647050093808625E-005 -0.100610162985630     
 -4.521210427828156E-003  8.448725476528101E-005 -0.110799980009335     
 -4.302475623837046E-003  1.316163277765092E-004 -0.118892166975681     
 -4.083193605970006E-003  1.429941614650551E-004 -0.124212985565356     
 -3.856714528678895E-003  1.433813096953731E-004 -0.126423524740353     
 -3.626251784715571E-003  1.420085325454377E-004 -0.125516284751828     
 -3.394431389354201E-003  1.405851458489084E-004 -0.121844661358972     
 -3.161642116149693E-003  1.388532029214722E-004 -0.116484575432661     
 -2.931759191153484E-003  6.860784253221687E-005 -0.120209555125749     
 -2.932257074103765E-003  1.786764861510319E-006 -0.122662429226140     
 -2.931756199771388E-003 -6.504174478125205E-005 -0.120210747090403     
 -3.161739109811615E-003 -1.353516690807031E-004 -0.116486751645261     
 -3.394608323718907E-003 -1.371691505729020E-004 -0.121846633367392     
 -3.626497975003683E-003 -1.387153451688686E-004 -0.125518018972649     
 -3.857019310963163E-003 -1.402428939503182E-004 -0.126425007567234     
 -4.083546327597417E-003 -1.400371463036939E-004 -0.124214212958044     
 -4.302865635070408E-003 -1.288620196121206E-004 -0.118893143401130     
 -4.521627090602905E-003 -8.195163199288950E-005 -0.110800719989446     
 -4.793451841158497E-003  3.877656934983690E-005 -0.100610692209530     
 -5.307783246063085E-003  2.065464134748491E-004 -8.976600255148939E-002
 -2.698786615305500E-003  1.397448130321947E-004 -0.119543208019534     
 -2.470573157207291E-003  1.401107139158831E-004 -0.128228516759489     
 -2.241451313707827E-003  1.401103653023755E-004 -0.135141441669203     
 -2.012295003511773E-003  1.401726335490630E-004 -0.139068783677159     
 -1.784114742846754E-003  1.398672968548773E-004 -0.139551927151974     
 -1.557817875610553E-003  1.366653300988140E-004 -0.136496784304232     
 -1.331579965295434E-003  1.240106720958035E-004 -0.130150883781347     
 -1.091106839637843E-003  9.208309243092629E-005 -0.121128607273842     
 -7.863999016939885E-004  4.828179548090735E-005 -0.110826828307090     
 -7.724336786529404E-004  4.347591907071931E-005 -0.110607497493650     
 -8.116548409430984E-004  2.456777618909788E-007 -0.113117067469002     
 -7.716515728873403E-004 -4.300225831769503E-005 -0.110608834140433     
 -7.850902832874822E-004 -4.717488257620184E-005 -0.110829321030876     
 -1.089986601775727E-003 -9.038470273814290E-005 -0.121131060318270     
 -1.330640162179046E-003 -1.218148646768051E-004 -0.130153323905855     
 -1.557047187901397E-003 -1.340599798980244E-004 -0.136499236830207     
 -1.783501836580760E-003 -1.369341104684976E-004 -0.139554403937650     
 -2.011828572429488E-003 -1.369876728829881E-004 -0.139071284626491     
 -2.241120059081050E-003 -1.367440381501897E-004 -0.135143956421884     
 -2.470365791430459E-003 -1.366277924753496E-004 -0.128231023292550     
 -2.698691852157035E-003 -1.362044033845398E-004 -0.119545662254831     
 -5.174726584124287E-004  1.165112149537080E-004 -0.106717334566743     
 -5.511811581729409E-004  7.052560338484695E-005 -0.112156721902793     
 -5.209815549014326E-004  3.770717479032729E-005 -0.116142857477863     
 -4.770605411524783E-004  2.470677278999695E-005 -0.117395073741344     
 -4.334708215160663E-004  2.110568259653606E-005 -0.115342656509213     
 -3.919364434404240E-004  2.023985211901385E-005 -0.109776806069550     
 -3.516204513461258E-004  1.942378346389259E-005 -0.100840832602884     
 -3.115500764805752E-004  1.754558863897896E-005 -8.905437291309555E-002
 -2.699993983446610E-004  1.443696674810539E-005 -7.572805939703436E-002
 -2.340398999006115E-004  1.485886305302828E-006 -7.228541695245544E-002
 -2.339182557716279E-004 -7.244773396225361E-006 -7.473601019808281E-002
 -2.316619808938131E-004 -1.600335269131175E-005 -7.228806739188208E-002
 -2.656301350073129E-004 -2.677938808263964E-005 -7.573344398720952E-002
 -3.075407781725126E-004 -2.781032141192725E-005 -8.905959584121889E-002
 -3.479606337692687E-004 -2.778839734460842E-005 -0.100845796193851     
 -3.886153624321958E-004 -2.687644227686200E-005 -0.109781436666208     
 -4.304777084043386E-004 -2.618093189412118E-005 -0.115346910713102     
 -4.743846227272519E-004 -2.838197312576014E-005 -0.117398934472318     
 -5.186120312675344E-004 -4.013824629920654E-005 -0.116146331885383     
 -5.491072253879252E-004 -7.186254893928861E-005 -0.112159841032433     
 -5.156858676287542E-004 -1.168981510290863E-004 -0.106720139798109     
 -1.939515869686137E-004  1.393448640308193E-005 -6.468197160089720E-002
 -1.614216918236604E-004  1.237189429367560E-005 -6.607525901969666E-002
 -1.270143484911080E-004  1.038359991897756E-005 -6.603827389804946E-002
 -9.197936972870775E-005  8.547337645664106E-006 -6.360165239264938E-002
 -5.686409488945851E-005  6.949765022676483E-006 -5.848442327736011E-002
 -2.200178928307975E-005  5.507934563374413E-006 -5.077905104375918E-002
  1.202938135565099E-005  3.916501219791988E-006 -4.095747624127860E-002
  4.428566473354648E-005  2.384084183982735E-007 -2.987891225361345E-002
  7.503557865946463E-005 -8.043379537151931E-006 -1.916714820267695E-002
  1.166908329213201E-004 -3.112769496805386E-005 -1.981596773241747E-002
  1.192626865619527E-004 -2.417838474639342E-005 -2.237746345126276E-002
  1.212901387324486E-004 -1.724667057826519E-005 -1.981513843079858E-002
  8.358084551159842E-005 -3.608628356168454E-005 -1.916822029152007E-002
  5.238511598546592E-005 -4.020798740574435E-005 -2.988052548224430E-002
  1.967699394105324E-005 -3.996186297405891E-005 -4.095985977568443E-002
 -1.479782515808927E-005 -3.785516827973438E-005 -5.078208133720057E-002
 -5.009418734016545E-005 -3.581857585552757E-005 -5.848800288093737E-002
 -8.563409495118853E-005 -3.415235211093733E-005 -6.360572298611032E-002
 -1.210843181311710E-004 -3.293479158647085E-005 -6.604277790592496E-002
 -1.558974981861817E-004 -3.207447546040978E-005 -6.608013004463173E-002
 -1.888240338341706E-004 -3.098896814796397E-005 -6.468713906564887E-002
  1.521141717217078E-004 -1.310928399227009E-005 -1.915907858100466E-002
  1.850580513656886E-004 -8.892402982064550E-006 -2.987462657886686E-002
  2.186702424791331E-004 -9.497814154839384E-006 -4.096023641089905E-002
  2.538949140762127E-004 -1.249298525896807E-005 -5.079068440761546E-002
  2.899833013897603E-004 -1.578960254885883E-005 -5.850646648454792E-002
  3.263820348560593E-004 -1.897576999179295E-005 -6.363539064666895E-002
  3.627453160371432E-004 -2.191573994788363E-005 -6.608452613205555E-002
  3.985075940632558E-004 -2.466760250146412E-005 -6.613425630295106E-002
  4.323855759070971E-004 -2.779845482327723E-005 -6.475309574246961E-002
  4.786256351228623E-004 -4.536982153324322E-005 -7.236362567317969E-002
  4.831033405001634E-004 -5.451806809203633E-005 -7.481304933466361E-002
  4.853986317779459E-004 -6.367478739252985E-005 -7.236473270420657E-002
  4.458517313251699E-004 -7.439329796806936E-005 -6.475537170177985E-002
  4.117578681356181E-004 -7.073401846412565E-005 -6.613613988509373E-002
  3.757098790327081E-004 -6.682172607704728E-005 -6.608587158337782E-002
  3.389918497500460E-004 -6.325779967167257E-005 -6.363610512062282E-002
  3.021693596385396E-004 -6.013471564919638E-005 -5.850653430050374E-002
  2.655882426491786E-004 -5.735118094336869E-005 -5.079017168449063E-002
  2.298019963786868E-004 -5.453027411027095E-005 -4.095927109350000E-002
  1.955607304577230E-004 -4.961415204870693E-005 -2.987341665591572E-002
  1.619087701745295E-004 -4.020422765091612E-005 -1.915828408747209E-002
  5.114054247965493E-004 -3.660584176783889E-005 -7.581494831572134E-002
  5.545807060864582E-004 -3.799948002246673E-005 -8.914932156021139E-002
  5.962696585544443E-004 -4.054263406570040E-005 -0.100944167830222     
  6.382342192523239E-004 -4.405636851539526E-005 -0.109888996158430     
  6.814715277928610E-004 -4.739541946214972E-005 -0.115464543213085     
  7.268382940712972E-004 -4.780018033457730E-005 -0.117527954849910     
  7.725706418663706E-004 -3.844373716114308E-005 -0.116288492897274     
  8.042995263678696E-004 -8.668969679493884E-006 -0.112317259151065     
  7.707312562859208E-004  3.472910902613386E-005 -0.106895057239149     
  1.035476258702135E-003 -4.356808805519830E-005 -0.110804618610145     
  1.078873808052795E-003 -8.787738667283942E-005 -0.113314487485806     
  1.041279288032278E-003 -1.321614864222631E-004 -0.110805710585453     
  7.826488544863598E-004 -2.044514229973961E-004 -0.106897161279373     
  8.167055840443882E-004 -1.548426586220489E-004 -0.112319352449305     
  7.853755552235431E-004 -1.186480650904228E-004 -0.116290565754858     
  7.399713757949647E-004 -1.026939640869898E-004 -0.117530013458922     
  6.948621316223922E-004 -9.635448339806267E-005 -0.115466596685872     
  6.518114813248682E-004 -9.283822932831591E-005 -0.109891055577749     
  6.099626625634406E-004 -8.942105972415535E-005 -0.100946248052859     
  5.683185692247765E-004 -8.499299217502796E-005 -8.915143851376862E-002
  5.251165380637684E-004 -7.941044081997853E-005 -7.581713160510163E-002
  1.047287854909638E-003 -4.163378967984010E-005 -0.111046116431308     
  1.359483136686595E-003  1.164000832852031E-008 -0.121377469778885     
  1.606055506608049E-003  2.961381370497904E-005 -0.130432930729524     
  1.838111179441520E-003  3.962935595311837E-005 -0.136814760079916     
  2.070262006999078E-003  4.011800816122755E-005 -0.139907960780882     
  2.304373857696055E-003  3.780345812521431E-005 -0.139464416582122     
  2.539516092125146E-003  3.530163872035970E-005 -0.135577675145177     
  2.774625736886777E-003  3.309575018699097E-005 -0.128705774930258     
  3.008694035952873E-003  3.075328135159048E-005 -0.120060829638486     
  3.250030648842400E-003 -4.421587826742727E-005 -0.120761891009647     
  3.252340805143481E-003 -1.128328541468213E-004 -0.123214629822187     
  3.253447268104768E-003 -1.813916001194949E-004 -0.120762962649855     
  3.016355237359060E-003 -2.524326713233836E-004 -0.120062125012492     
  2.782986222468781E-003 -2.506553637497508E-004 -0.128706745439951     
  2.548503759098342E-003 -2.484106537748921E-004 -0.135578561581175     
  2.313917868109362E-003 -2.461662754171834E-004 -0.139465393320811     
  2.080291485077128E-003 -2.434741676866623E-004 -0.139909133248717     
  1.848555295595722E-003 -2.377538492785024E-004 -0.136816183364021     
  1.616843647104926E-003 -2.223171355632327E-004 -0.130434618838802     
  1.370544645668063E-003 -1.871355183796716E-004 -0.121379398820639     
  1.058533158920953E-003 -1.397836635626718E-004 -0.111048216621255     
  3.484200191374110E-003  2.615014188493996E-005 -0.117072096845679     
  3.723782629173774E-003  2.656857216455071E-005 -0.122471700941731     
  3.962264692223121E-003  2.688520065839923E-005 -0.126183667003512     
  4.199400428466568E-003  2.735440775501575E-005 -0.127131111267795     
  4.432634831551470E-003  2.633467368516916E-005 -0.124960189800031     
  4.658799817865236E-003  1.474694658784045E-005 -0.119677977317001     
  4.884457551191579E-003 -3.182927477174291E-005 -0.111622871622387     
  5.162538657825174E-003 -1.509660909032180E-004 -0.101468080508930     
  5.680062124824893E-003 -3.162121076790774E-004 -9.065602779313946E-002
  5.112600065864073E-003 -1.513110943169179E-004 -9.150442265502409E-002
  4.963677416921758E-003 -1.181523579366370E-004 -9.429360904608428E-002
  5.110635243093099E-003 -8.490726709134671E-005 -9.151849872412347E-002
  5.677208500658503E-003  7.856805208284541E-005 -9.068183224128891E-002
  5.161065227564830E-003 -8.762718279838967E-005 -0.101491576280494     
  4.884269731930249E-003 -2.070644330582152E-004 -0.111643532395803     
  4.659829187275717E-003 -2.533207701358287E-004 -0.119695569367195     
  4.434813109942783E-003 -2.639968905548588E-004 -0.124974613013081     
  4.202659035593072E-003 -2.635476834324504E-004 -0.127142386780217     
  3.966534979943694E-003 -2.610865126468896E-004 -0.126191953590226     
  3.728995909446427E-003 -2.582889961588819E-004 -0.122477307795267     
  3.490286434588818E-003 -2.549347340814472E-004 -0.117075470843893     
  5.450068202696261E-003 -5.663040995038937E-005 -8.862867709278058E-002
  4.703588345701759E-003 -2.220444527554238E-004 -9.634617763497452E-002
  4.196329066541323E-003 -3.400980138158299E-004 -0.102163572861677     
  3.741152542943543E-003 -3.848652846184496E-004 -0.104139228113026     
  3.285414743581470E-003 -3.945585806303034E-004 -0.101045477468380     
  2.823495798222506E-003 -3.940145119521832E-004 -9.203690959956994E-002
  2.361186323535440E-003 -3.915222945183143E-004 -7.681249058611632E-002
  1.905905900168195E-003 -3.816645477455178E-004 -5.578325603883667E-002
  1.459140240339296E-003 -3.458008101493103E-004 -3.013253769053337E-002
  9.595283258875104E-004 -1.375592125165940E-004 -1.889842172958804E-003
  9.535960956290188E-004 -9.511354895368724E-005 -1.905833030650122E-003
  9.515831808777579E-004 -5.261939854272423E-005 -1.905532462797603E-003
  1.444767504445688E-003  1.485028562524222E-004 -3.016371746547411E-002
  1.892944630572197E-003  1.776472038987574E-004 -5.581434794125714E-002
  2.349568940689268E-003  1.814774600732786E-004 -7.684346715288996E-002
  2.813150982251050E-003  1.785960741566906E-004 -9.206774412161169E-002
  3.276268955768855E-003  1.743850019477575E-004 -0.101076119698192     
  3.733132341006104E-003  1.605176527345009E-004 -0.104169600980490     
  4.189361311725217E-003  1.121205963660924E-004 -0.102193575472639     
  4.697599934997311E-003 -9.049368027284433E-006 -9.637566114793902E-002
  5.444960039457374E-003 -1.770975983773611E-004 -8.865727373320802E-002
 -5.055193161701920E-003 -5.467224989841185E-005 -8.768551485166722E-002
 -4.289295761366682E-003  1.141014852330588E-004 -9.538199048553515E-002
 -3.765666566226495E-003  2.351639359593723E-004 -0.101181251351440     
 -3.294745987153448E-003  2.823076322876727E-004 -0.103141428452466     
 -2.823269152762200E-003  2.943380731999539E-004 -0.100034412335182     
 -2.345818017266723E-003  2.964680099008455E-004 -9.101429094410007E-002
 -1.868961806240237E-003  2.967022348770431E-004 -7.578004174159803E-002
 -1.401213048471413E-003  2.870636861281057E-004 -5.474396346373247E-002
 -9.429334337036822E-004  2.447003800757060E-004 -2.909295509755111E-002
 -4.284532373283782E-004  2.029007889988947E-005 -8.208518076399816E-004
 -4.270871789182943E-004  1.531863549904367E-008 -8.231731154633145E-004
 -4.284396082092332E-004 -2.025807886235205E-005 -8.208491594358376E-004
 -9.428129126791365E-004 -2.445944065920023E-004 -2.909294222502901E-002
 -1.401014334518386E-003 -2.868605337493276E-004 -5.474393950153335E-002
 -1.868695578856785E-003 -2.963652597464681E-004 -7.578000588503421E-002
 -2.345495055289915E-003 -2.959662309535805E-004 -9.101424137163318E-002
 -2.822900444054122E-003 -2.936458123958249E-004 -0.100034346475513     
 -3.294342516720359E-003 -2.814047675868213E-004 -0.103141342633675     
 -3.765239308333970E-003 -2.340358393897114E-004 -0.101181140231224     
 -4.288855685776543E-003 -1.127387972182942E-004 -9.538184572184469E-002
 -5.054752228641483E-003  5.627360435578378E-005 -8.768532494202386E-002
 -4.934534856707384E-003  2.438786673701973E-004 -9.420344970426041E-002
 -4.656281365486261E-003  1.036703691997222E-006 -9.617278247093430E-002
 -4.934320786808406E-003 -2.418071331193383E-004 -9.420326747623470E-002
 -4.780123588495785E-003  7.808406171387408E-005 -0.101838392262439     
 -4.706989160664489E-003  1.154789658696882E-006 -0.102408240473544     
 -4.779913393945224E-003 -7.577538341490546E-005 -0.101838128379480     
 -4.560759380514188E-003 -2.568319881933030E-005 -0.110705167984272     
 -4.558467065111054E-003  1.271000804141693E-006 -0.110654408735161     
 -4.560557207550978E-003  2.822360020749577E-005 -0.110704798402995     
 -4.326930633926725E-003 -6.307719231231102E-005 -0.118519765297984     
 -4.335441340018598E-003  1.381944260529807E-006 -0.118368784479722     
 -4.326741758535107E-003  6.583869051360603E-005 -0.118519277062888     
 -4.092179297208788E-003 -7.082589793539909E-005 -0.123841794227834     
 -4.097319122600933E-003  1.484899138673383E-006 -0.123695748581384     
 -4.092009061731547E-003  7.379250015191628E-005 -0.123841180479512     
 -3.858678457576097E-003 -7.032962488919166E-005 -0.126047654347996     
 -3.860421086906486E-003  1.577197846447124E-006 -0.125897861620586     
 -3.858532191973635E-003  7.348002602339626E-005 -0.126046912772307     
 -3.626000234199605E-003 -6.888051142076376E-005 -0.125358058697001     
 -3.626207600173010E-003  1.656179977328536E-006 -0.125284061733465     
 -3.625883264505442E-003  7.218807685599140E-005 -0.125357192048691     
 -3.393661124292360E-003 -6.764794078955902E-005 -0.122807014425018     
 -3.393554040275941E-003  1.719172803927097E-006 -0.123257798652626     
 -3.393578766176847E-003  7.108071773635299E-005 -0.122806030368069     
 -3.161496875253808E-003 -6.568352760990957E-005 -0.120258297191484     
 -3.162497540466648E-003  1.763543437248886E-006 -0.121971371601552     
 -3.161454417981433E-003  6.920417461579162E-005 -0.120257202314302     
 -2.701410980943307E-003 -6.707747964406670E-005 -0.123491461215217     
 -2.702307927933096E-003  1.786263079982285E-006 -0.125256130403292     
 -2.701464913132093E-003  7.064190086916800E-005 -0.123490229897317     
 -2.471190806237954E-003 -6.770325061812032E-005 -0.129269036363715     
 -2.471805548714362E-003  1.759187330724605E-006 -0.129762484233974     
 -2.471301002799088E-003  7.121278063512270E-005 -0.129267784980187     
 -2.241296586815473E-003 -6.770787961606492E-005 -0.134994998658682     
 -2.241423845492522E-003  1.702590972772139E-006 -0.134926262404469     
 -2.241468711642987E-003  7.110334633512235E-005 -0.134993741537575     
 -2.011394365662941E-003 -6.796727141659109E-005 -0.138676403662030     