# vtk DataFile Version 3.0
 Bridge                                                                         
  
ASCII
DATASET UNSTRUCTURED_GRID
 POINTS        4087 double
   200.000000000000       -10.0000000000000       0.000000000000000E+000
   200.000000000000        10.0000000000000       0.000000000000000E+000
   150.000000000000        10.0000000000000       0.000000000000000E+000
   150.000000000000       -10.0000000000000       0.000000000000000E+000
   100.000000000000        10.0000000000000       0.000000000000000E+000
   100.000000000000       -10.0000000000000       0.000000000000000E+000
   50.0000000000000        10.0000000000000       0.000000000000000E+000
   50.0000000000000       -10.0000000000000       0.000000000000000E+000
  0.000000000000000E+000   10.0000000000000       0.000000000000000E+000
  0.000000000000000E+000  -10.0000000000000       0.000000000000000E+000
  -50.0000000000000        10.0000000000000       0.000000000000000E+000
  -50.0000000000000       -10.0000000000000       0.000000000000000E+000
  -100.000000000000        10.0000000000000       0.000000000000000E+000
  -100.000000000000       -10.0000000000000       0.000000000000000E+000
  -150.000000000000        10.0000000000000       0.000000000000000E+000
  -150.000000000000       -10.0000000000000       0.000000000000000E+000
  -200.000000000000        10.0000000000000       0.000000000000000E+000
  -200.000000000000       -10.0000000000000       0.000000000000000E+000
  -250.000000000000        10.0000000000000       0.000000000000000E+000
  -250.000000000000       -10.0000000000000       0.000000000000000E+000
   250.000000000000       -10.0000000000000       0.000000000000000E+000
   250.000000000000        10.0000000000000       0.000000000000000E+000
   200.000000000000       -5.00000000000000       0.000000000000000E+000
   200.000000000000       0.000000000000000E+000  0.000000000000000E+000
   200.000000000000        5.00000000000000       0.000000000000000E+000
   195.000000000000        10.0000000000000       0.000000000000000E+000
   190.000000000000        10.0000000000000       0.000000000000000E+000
   185.000000000000        10.0000000000000       0.000000000000000E+000
   180.000000000000        10.0000000000000       0.000000000000000E+000
   175.000000000000        10.0000000000000       0.000000000000000E+000
   170.000000000000        10.0000000000000       0.000000000000000E+000
   165.000000000000        10.0000000000000       0.000000000000000E+000
   160.000000000000        10.0000000000000       0.000000000000000E+000
   155.000000000000        10.0000000000000       0.000000000000000E+000
   150.000000000000        5.00000000000000       0.000000000000000E+000
   150.000000000000       0.000000000000000E+000  0.000000000000000E+000
   150.000000000000       -5.00000000000000       0.000000000000000E+000
   155.000000000000       -10.0000000000000       0.000000000000000E+000
   160.000000000000       -10.0000000000000       0.000000000000000E+000
   165.000000000000       -10.0000000000000       0.000000000000000E+000
   170.000000000000       -10.0000000000000       0.000000000000000E+000
   175.000000000000       -10.0000000000000       0.000000000000000E+000
   180.000000000000       -10.0000000000000       0.000000000000000E+000
   185.000000000000       -10.0000000000000       0.000000000000000E+000
   190.000000000000       -10.0000000000000       0.000000000000000E+000
   195.000000000000       -10.0000000000000       0.000000000000000E+000
   145.000000000000        10.0000000000000       0.000000000000000E+000
   140.000000000000        10.0000000000000       0.000000000000000E+000
   135.000000000000        10.0000000000000       0.000000000000000E+000
   130.000000000000        10.0000000000000       0.000000000000000E+000
   125.000000000000        10.0000000000000       0.000000000000000E+000
   120.000000000000        10.0000000000000       0.000000000000000E+000
   115.000000000000        10.0000000000000       0.000000000000000E+000
   110.000000000000        10.0000000000000       0.000000000000000E+000
   105.000000000000        10.0000000000000       0.000000000000000E+000
   100.000000000000        5.00000000000000       0.000000000000000E+000
   100.000000000000       0.000000000000000E+000  0.000000000000000E+000
   100.000000000000       -5.00000000000000       0.000000000000000E+000
   105.000000000000       -10.0000000000000       0.000000000000000E+000
   110.000000000000       -10.0000000000000       0.000000000000000E+000
   115.000000000000       -10.0000000000000       0.000000000000000E+000
   120.000000000000       -10.0000000000000       0.000000000000000E+000
   125.000000000000       -10.0000000000000       0.000000000000000E+000
   130.000000000000       -10.0000000000000       0.000000000000000E+000
   135.000000000000       -10.0000000000000       0.000000000000000E+000
   140.000000000000       -10.0000000000000       0.000000000000000E+000
   145.000000000000       -10.0000000000000       0.000000000000000E+000
   95.0000000000000        10.0000000000000       0.000000000000000E+000
   90.0000000000000        10.0000000000000       0.000000000000000E+000
   85.0000000000000        10.0000000000000       0.000000000000000E+000
   80.0000000000000        10.0000000000000       0.000000000000000E+000
   75.0000000000000        10.0000000000000       0.000000000000000E+000
   70.0000000000000        10.0000000000000       0.000000000000000E+000
   65.0000000000000        10.0000000000000       0.000000000000000E+000
   60.0000000000000        10.0000000000000       0.000000000000000E+000
   55.0000000000000        10.0000000000000       0.000000000000000E+000
   50.0000000000000        5.00000000000000       0.000000000000000E+000
   50.0000000000000       0.000000000000000E+000  0.000000000000000E+000
   50.0000000000000       -5.00000000000000       0.000000000000000E+000
   55.0000000000000       -10.0000000000000       0.000000000000000E+000
   60.0000000000000       -10.0000000000000       0.000000000000000E+000
   65.0000000000000       -10.0000000000000       0.000000000000000E+000
   70.0000000000000       -10.0000000000000       0.000000000000000E+000
   75.0000000000000       -10.0000000000000       0.000000000000000E+000
   80.0000000000000       -10.0000000000000       0.000000000000000E+000
   85.0000000000000       -10.0000000000000       0.000000000000000E+000
   90.0000000000000       -10.0000000000000       0.000000000000000E+000
   95.0000000000000       -10.0000000000000       0.000000000000000E+000
   45.0000000000000        10.0000000000000       0.000000000000000E+000
   40.0000000000000        10.0000000000000       0.000000000000000E+000
   35.0000000000000        10.0000000000000       0.000000000000000E+000
   30.0000000000000        10.0000000000000       0.000000000000000E+000
   25.0000000000000        10.0000000000000       0.000000000000000E+000
   20.0000000000000        10.0000000000000       0.000000000000000E+000
   15.0000000000000        10.0000000000000       0.000000000000000E+000
   10.0000000000000        10.0000000000000       0.000000000000000E+000
   5.00000000000000        10.0000000000000       0.000000000000000E+000
  0.000000000000000E+000   5.00000000000000       0.000000000000000E+000
  0.000000000000000E+000  0.000000000000000E+000  0.000000000000000E+000
  0.000000000000000E+000  -5.00000000000000       0.000000000000000E+000
   5.00000000000000       -10.0000000000000       0.000000000000000E+000
   10.0000000000000       -10.0000000000000       0.000000000000000E+000
   15.0000000000000       -10.0000000000000       0.000000000000000E+000
   20.0000000000000       -10.0000000000000       0.000000000000000E+000
   25.0000000000000       -10.0000000000000       0.000000000000000E+000
   30.0000000000000       -10.0000000000000       0.000000000000000E+000
   35.0000000000000       -10.0000000000000       0.000000000000000E+000
   40.0000000000000       -10.0000000000000       0.000000000000000E+000
   45.0000000000000       -10.0000000000000       0.000000000000000E+000
  -5.00000000000000        10.0000000000000       0.000000000000000E+000
  -10.0000000000000        10.0000000000000       0.000000000000000E+000
  -15.0000000000000        10.0000000000000       0.000000000000000E+000
  -20.0000000000000        10.0000000000000       0.000000000000000E+000
  -25.0000000000000        10.0000000000000       0.000000000000000E+000
  -30.0000000000000        10.0000000000000       0.000000000000000E+000
  -35.0000000000000        10.0000000000000       0.000000000000000E+000
  -40.0000000000000        10.0000000000000       0.000000000000000E+000
  -45.0000000000000        10.0000000000000       0.000000000000000E+000
  -50.0000000000000        5.00000000000000       0.000000000000000E+000
  -50.0000000000000       0.000000000000000E+000  0.000000000000000E+000
  -50.0000000000000       -5.00000000000000       0.000000000000000E+000
  -45.0000000000000       -10.0000000000000       0.000000000000000E+000
  -40.0000000000000       -10.0000000000000       0.000000000000000E+000
  -35.0000000000000       -10.0000000000000       0.000000000000000E+000
  -30.0000000000000       -10.0000000000000       0.000000000000000E+000
  -25.0000000000000       -10.0000000000000       0.000000000000000E+000
  -20.0000000000000       -10.0000000000000       0.000000000000000E+000
  -15.0000000000000       -10.0000000000000       0.000000000000000E+000
  -10.0000000000000       -10.0000000000000       0.000000000000000E+000
  -5.00000000000000       -10.0000000000000       0.000000000000000E+000
  -55.0000000000000        10.0000000000000       0.000000000000000E+000
  -60.0000000000000        10.0000000000000       0.000000000000000E+000
  -65.0000000000000        10.0000000000000       0.000000000000000E+000
  -70.0000000000000        10.0000000000000       0.000000000000000E+000
[...]
 CELL_DATA        2884
 POINT_DATA        4087
 FIELD Result            2
 Displacement_Load_Case01            3        4087 double
 -6.573186353764254E-003  7.268962098191923E-005 -8.298598112353409E-002
 -6.572761037155661E-003 -7.085243571438773E-005 -8.298573826712893E-002
 -2.925322703397421E-003  1.335380912777340E-004 -0.113299736470994     
 -2.925329120542694E-003 -1.299943990425529E-004 -0.113302068640931     
 -2.840692509724630E-004  8.882190290106755E-005 -0.103767442360695     
 -2.825718283470426E-004 -8.840123590682547E-005 -0.103770009956429     
 -2.221526710992878E-004  8.151235689981428E-006 -6.538647191836548E-002
 -2.174138183016688E-004 -2.275222615722463E-005 -6.539185885255608E-002
  1.111628764024545E-004 -5.193507547457517E-005 -1.327075673653913E-002
  1.201015167835129E-004  3.521220608713079E-006 -1.327147504415583E-002
  4.618486312425287E-004 -3.826709725191905E-005 -6.546654226937390E-002
  4.754577070642241E-004 -7.080260568696080E-005 -6.546890062401944E-002
  5.331242764777011E-004  2.899337423378464E-006 -0.103963509280565     
  5.443790072222390E-004 -1.785533208348820E-004 -0.103965633392855     
  3.240608016007005E-003  2.257392101841443E-005 -0.113852616961977     
  3.247491667640451E-003 -2.480070874825506E-004 -0.113854513353454     
  6.939103029631255E-003 -1.832973359017175E-004 -8.390495941611933E-002
  6.934658428000832E-003 -5.266113964169955E-005 -8.393221090790938E-002
  9.861870000802157E-004 -1.983082355900501E-004 -1.825971936918793E-003
  9.703144849755528E-004  8.311837766467636E-006 -1.857177170082916E-003
 -4.469774233056130E-004  5.174004583314527E-005 -7.975294296896941E-004
 -4.469485004662610E-004 -5.170273853525625E-005 -7.975285187217555E-004
 -4.724039298644793E-003  3.734454436442662E-005 -9.057993199509322E-002
 -4.574063128399322E-003  9.186071301425022E-007 -9.336243169878207E-002
 -4.723821464154829E-003 -3.550735156704290E-005 -9.057980273088799E-002
 -5.307346220750265E-003 -2.044756704002589E-004 -8.976564793208672E-002
 -4.793019173026066E-003 -3.647050093696442E-005 -0.100610162985625     
 -4.521210427828035E-003  8.448725476651444E-005 -0.110799980009330     
 -4.302475623836973E-003  1.316163277778304E-004 -0.118892166975677     
 -4.083193605969977E-003  1.429941614664404E-004 -0.124212985565352     
 -3.856714528678912E-003  1.433813096968001E-004 -0.126423524740349     
 -3.626251784715631E-003  1.420085325468840E-004 -0.125516284751825     
 -3.394431389354303E-003  1.405851458503522E-004 -0.121844661358968     
 -3.161642116149832E-003  1.388532029228941E-004 -0.116484575432656     
 -2.931759191153615E-003  6.860784253360791E-005 -0.120209555125747     
 -2.932257074103850E-003  1.786764862904910E-006 -0.122662429226140     
 -2.931756199771427E-003 -6.504174477986071E-005 -0.120210747090406     
 -3.161739109811644E-003 -1.353516690792792E-004 -0.116486751645269     
 -3.394608323718975E-003 -1.371691505714576E-004 -0.121846633367402     
 -3.626497975003791E-003 -1.387153451674232E-004 -0.125518018972661     
 -3.857019310963314E-003 -1.402428939488921E-004 -0.126425007567245     
 -4.083546327597611E-003 -1.400371463023086E-004 -0.124214212958055     
 -4.302865635070649E-003 -1.288620196107991E-004 -0.118893143401140     
 -4.521627090603195E-003 -8.195163199165569E-005 -0.110800719989455     
 -4.793451841158838E-003  3.877656935096080E-005 -0.100610692209537     
 -5.307783246063484E-003  2.065464134758392E-004 -8.976600255149518E-002
 -2.698786615305716E-003  1.397448130335215E-004 -0.119543208019530     
 -2.470573157207546E-003  1.401107139171356E-004 -0.128228516759487     
 -2.241451313708121E-003  1.401103653035354E-004 -0.135141441669203     
 -2.012295003512105E-003  1.401726335501128E-004 -0.139068783677160     
 -1.784114742847125E-003  1.398672968557985E-004 -0.139551927151976     
 -1.557817875610962E-003  1.366653300995884E-004 -0.136496784304233     
 -1.331579965295881E-003  1.240106720964123E-004 -0.130150883781346     
 -1.091106839638328E-003  9.208309243135039E-005 -0.121128607273839     
 -7.863999016945075E-004  4.828179548112929E-005 -0.110826828307085     
 -7.724336786532616E-004  4.347591907072632E-005 -0.110607497493645     
 -8.116548409432134E-004  2.456777619004032E-007 -0.113117067468999     
 -7.716515728872437E-004 -4.300225831768433E-005 -0.110608834140431     
 -7.850902832871570E-004 -4.717488257596690E-005 -0.110829321030873     
 -1.089986601775443E-003 -9.038470273771126E-005 -0.121131060318264     
 -1.330640162178797E-003 -1.218148646761927E-004 -0.130153323905846     
 -1.557047187901183E-003 -1.340599798972475E-004 -0.136499236830197     
 -1.783501836580580E-003 -1.369341104675738E-004 -0.139554403937640     
 -2.011828572429342E-003 -1.369876728819355E-004 -0.139071284626482     
 -2.241120059080939E-003 -1.367440381490267E-004 -0.135143956421878     
 -2.470365791430383E-003 -1.366277924740953E-004 -0.128231023292548     
 -2.698691852156993E-003 -1.362044033832120E-004 -0.119545662254832     
 -5.174726584129727E-004  1.165112149534912E-004 -0.106717334566738     
 -5.511811581734760E-004  7.052560338442082E-005 -0.112156721902788     
 -5.209815549019576E-004  3.770717478970421E-005 -0.116142857477859     
 -4.770605411529927E-004  2.470677278919002E-005 -0.117395073741340     
 -4.334708215165705E-004  2.110568259555781E-005 -0.115342656509209     
 -3.919364434409185E-004  2.023985211787621E-005 -0.109776806069547     
 -3.516204513466111E-004  1.942378346260704E-005 -0.100840832602880     
 -3.115500764810518E-004  1.754558863755650E-005 -8.905437291309205E-002
 -2.699993983451282E-004  1.443696674655695E-005 -7.572805939703105E-002
 -2.340398999009652E-004  1.485886303640654E-006 -7.228541695245089E-002
 -2.339182557718712E-004 -7.244773397885239E-006 -7.473601019807766E-002
 -2.316619808939447E-004 -1.600335269296625E-005 -7.228806739187728E-002
 -2.656301350072968E-004 -2.677938808416947E-005 -7.573344398720526E-002
 -3.075407781724620E-004 -2.781032141333195E-005 -8.905959584121360E-002
 -3.479606337691824E-004 -2.778839734587693E-005 -0.100845796193845     
 -3.886153624320730E-004 -2.687644227798288E-005 -0.109781436666203     
 -4.304777084041788E-004 -2.618093189508279E-005 -0.115346910713099     
 -4.743846227270548E-004 -2.838197312655084E-005 -0.117398934472316     
 -5.186120312672995E-004 -4.013824629981494E-005 -0.116146331885383     
 -5.491072253876512E-004 -7.186254893970437E-005 -0.112159841032434     
 -5.156858676284344E-004 -1.168981510292989E-004 -0.106720139798110     
 -1.939515869690711E-004  1.393448640131525E-005 -6.468197160089298E-002
 -1.614216918241169E-004  1.237189429181269E-005 -6.607525901969120E-002
 -1.270143484915629E-004  1.038359991702804E-005 -6.603827389804329E-002
 -9.197936972916157E-005  8.547337643637350E-006 -6.360165239264284E-002
 -5.686409488991141E-005  6.949765020581456E-006 -5.848442327735368E-002
 -2.200178928353184E-005  5.507934561220211E-006 -5.077905104375339E-002
  1.202938135519935E-005  3.916501217588733E-006 -4.095747624127401E-002
  4.428566473309229E-005  2.384084161577040E-007 -2.987891225361046E-002
  7.503557865899656E-005 -8.043379539419753E-006 -1.916714820267568E-002
  1.166908329209048E-004 -3.112769497035452E-005 -1.981596773241734E-002
  1.192626865615802E-004 -2.417838474869644E-005 -2.237746345126229E-002
  1.212901387321036E-004 -1.724667058057003E-005 -1.981513843079797E-002
  8.358084551125734E-005 -3.608628356396884E-005 -1.916822029151756E-002
  5.238511598517229E-005 -4.020798740798308E-005 -2.988052548223974E-002
  1.967699394079395E-005 -3.996186297624768E-005 -4.095985977567781E-002
 -1.479782515831630E-005 -3.785516828186937E-005 -5.078208133719207E-002
 -5.009418734035964E-005 -3.581857585760226E-005 -5.848800288092752E-002
 -8.563409495134906E-005 -3.415235211294378E-005 -6.360572298610014E-002
 -1.210843181312972E-004 -3.293479158840056E-005 -6.604277790591555E-002
 -1.558974981862731E-004 -3.207447546225409E-005 -6.608013004462414E-002
 -1.888240338342257E-004 -3.098896814971402E-005 -6.468713906564372E-002
  1.521141717212385E-004 -1.310928399460774E-005 -1.915907858100580E-002
  1.850580513652346E-004 -8.892402984434800E-006 -2.987462657886813E-002
  2.186702424786839E-004 -9.497814157252394E-006 -4.096023641090005E-002
  2.538949140757663E-004 -1.249298526143545E-005 -5.079068440761590E-002
  2.899833013893170E-004 -1.578960255139046E-005 -5.850646648454771E-002
  3.263820348556203E-004 -1.897576999439712E-005 -6.363539064666837E-002
  3.627453160367093E-004 -2.191573995056777E-005 -6.608452613205514E-002
  3.985075940628276E-004 -2.466760250423546E-005 -6.613425630295151E-002
  4.323855759066754E-004 -2.779845482614283E-005 -6.475309574247173E-002
  4.786256351225495E-004 -4.536982153621230E-005 -7.236362567318463E-002
  4.831033404999532E-004 -5.451806809500925E-005 -7.481304933466894E-002
  4.853986317778382E-004 -6.367478739550846E-005 -7.236473270421197E-002
  4.458517313251315E-004 -7.439329797095748E-005 -6.475537170178554E-002
  4.117578681355474E-004 -7.073401846692049E-005 -6.613613988510036E-002
  3.757098790326041E-004 -6.682172607975528E-005 -6.608587158338489E-002
  3.389918497499081E-004 -6.325779967430062E-005 -6.363610512062955E-002
  3.021693596383672E-004 -6.013471565175178E-005 -5.850653430050964E-002
  2.655882426489714E-004 -5.735118094585866E-005 -5.079017168449549E-002
  2.298019963784442E-004 -5.453027411270172E-005 -4.095927109350367E-002
  1.955607304574413E-004 -4.961415205108302E-005 -2.987341665591815E-002
  1.619087701741945E-004 -4.020422765324373E-005 -1.915828408747311E-002
  5.114054247961399E-004 -3.660584177091187E-005 -7.581494831572877E-002
  5.545807060860545E-004 -3.799948002565369E-005 -8.914932156022179E-002
  5.962696585540471E-004 -4.054263406900819E-005 -0.100944167830235     
  6.382342192519343E-004 -4.405636851883010E-005 -0.109888996158445     
  6.814715277924799E-004 -4.739541946571727E-005 -0.115464543213100     
  7.268382940709260E-004 -4.780018033828286E-005 -0.117527954849925     
  7.725706418660098E-004 -3.844373716499183E-005 -0.116288492897288     
  8.042995263675209E-004 -8.668969683490607E-006 -0.112317259151077     
  7.707312562855868E-004  3.472910902198613E-005 -0.106895057239160     
  1.035476258701979E-003 -4.356808805950936E-005 -0.110804618610154     
  1.078873808052770E-003 -8.787738667715708E-005 -0.113314487485813     
  1.041279288032389E-003 -1.321614864265847E-004 -0.110805710585458     
  7.826488544866345E-004 -2.044514230015576E-004 -0.106897161279378     
  8.167055840446291E-004 -1.548426586260638E-004 -0.112319352449311     
  7.853755552237559E-004 -1.186480650942933E-004 -0.116290565754865     
  7.399713757951491E-004 -1.026939640907186E-004 -0.117530013458930     
  6.948621316225470E-004 -9.635448340165374E-005 -0.115466596685880     
  6.518114813249926E-004 -9.283822933177440E-005 -0.109891055577756     
  6.099626625635340E-004 -8.942105972748672E-005 -0.100946248052867     
  5.683185692248379E-004 -8.499299217823817E-005 -8.915143851377502E-002
  5.251165380637969E-004 -7.941044082307391E-005 -7.581713160510703E-002
  1.047287854909388E-003 -4.163378968427789E-005 -0.111046116431320     
  1.359483136686412E-003  1.164000378357915E-008 -0.121377469778897     
  1.606055506607931E-003  2.961381370035665E-005 -0.130432930729537     
  1.838111179441468E-003  3.962935594844822E-005 -0.136814760079929     
  2.070262006999090E-003  4.011800815653875E-005 -0.139907960780897     
  2.304373857696130E-003  3.780345812053480E-005 -0.139464416582137     
  2.539516092125282E-003  3.530163871571651E-005 -0.135577675145191     
  2.774625736886975E-003  3.309575018241038E-005 -0.128705774930271     
  3.008694035953130E-003  3.075328134709839E-005 -0.120060829638497     
  3.250030648842590E-003 -4.421587827181833E-005 -0.120761891009655     
  3.252340805143549E-003 -1.128328541512183E-004 -0.123214629822192     
  3.253447268104712E-003 -1.813916001238901E-004 -0.120762962649856     
  3.016355237358918E-003 -2.524326713278852E-004 -0.120062125012490     
  2.782986222468683E-003 -2.506553637543417E-004 -0.128706745439949     
  2.548503759098289E-003 -2.484106537795460E-004 -0.135578561581172     
  2.313917868109355E-003 -2.461662754218732E-004 -0.139465393320807     
  2.080291485077167E-003 -2.434741676913610E-004 -0.139909133248713     
  1.848555295595809E-003 -2.377538492831824E-004 -0.136816183364018     
  1.616843647105061E-003 -2.223171355678664E-004 -0.130434618838800     
  1.370544645668250E-003 -1.871355183842320E-004 -0.121379398820638     
  1.058533158921199E-003 -1.397836635671312E-004 -0.111048216621256     
  3.484200191374479E-003  2.615014188069831E-005 -0.117072096845692     
  3.723782629174196E-003  2.656857216046737E-005 -0.122471700941745     
  3.962264692223595E-003  2.688520065449499E-005 -0.126183667003527     
  4.199400428467093E-003  2.735440775131250E-005 -0.127131111267811     
  4.432634831552049E-003  2.633467368168821E-005 -0.124960189800046     
  4.658799817865870E-003  1.474694658460495E-005 -0.119677977317014     
  4.884457551192263E-003 -3.182927477471096E-005 -0.111622871622396     
  5.162538657825917E-003 -1.509660909058987E-004 -0.101468080508938     
  5.680062124825703E-003 -3.162121076814503E-004 -9.065602779314449E-002
  5.112600065864524E-003 -1.513110943189424E-004 -9.150442265502531E-002
  4.963677416921884E-003 -1.181523579386591E-004 -9.429360904608329E-002
  5.110635243092908E-003 -8.490726709336804E-005 -9.151849872412070E-002
  5.677208500657992E-003  7.856805208048554E-005 -9.068183224128505E-002
  5.161065227564353E-003 -8.762718280106799E-005 -0.101491576280489     
  4.884269731929809E-003 -2.070644330611878E-004 -0.111643532395796     
  4.659829187275319E-003 -2.533207701390714E-004 -0.119695569367187     
  4.434813109942425E-003 -2.639968905583482E-004 -0.124974613013071     
  4.202659035592748E-003 -2.635476834361636E-004 -0.127142386780208     
  3.966534979943407E-003 -2.610865126508048E-004 -0.126191953590218     
  3.728995909446174E-003 -2.582889961629762E-004 -0.122477307795260     
  3.490286434588599E-003 -2.549347340856987E-004 -0.117075470843889     
  5.450068202697057E-003 -5.663040995206727E-005 -8.862867709278222E-002
  4.703588345702468E-003 -2.220444527567976E-004 -9.634617763497337E-002
  4.196329066541955E-003 -3.400980138169257E-004 -0.102163572861673     
  3.741152542944099E-003 -3.848652846192953E-004 -0.104139228113020     
  3.285414743581949E-003 -3.945585806309305E-004 -0.101045477468373     
  2.823495798222905E-003 -3.940145119526235E-004 -9.203690959956198E-002
  2.361186323535756E-003 -3.915222945186021E-004 -7.681249058610906E-002
  1.905905900168427E-003 -3.816645477456881E-004 -5.578325603883117E-002
  1.459140240339442E-003 -3.458008101493987E-004 -3.013253769053042E-002
  9.595283258875449E-004 -1.375592125166168E-004 -1.889842172958814E-003
  9.535960956290300E-004 -9.511354895370641E-005 -1.905833030650124E-003
  9.515831808777468E-004 -5.261939854274508E-005 -1.905532462797599E-003
  1.444767504445594E-003  1.485028562523472E-004 -3.016371746547421E-002
  1.892944630572043E-003  1.776472038986029E-004 -5.581434794125718E-002
  2.349568940689054E-003  1.814774600730074E-004 -7.684346715288967E-002
  2.813150982250780E-003  1.785960741562671E-004 -9.206774412161076E-002
  3.276268955768532E-003  1.743850019471470E-004 -0.101076119698190     
  3.733132341005728E-003  1.605176527336704E-004 -0.104169600980486     
  4.189361311724791E-003  1.121205963650090E-004 -0.102193575472634     
  4.697599934996840E-003 -9.049368028653296E-006 -9.637566114793417E-002
  5.444960039456864E-003 -1.770975983790440E-004 -8.865727373320324E-002
 -5.055193161702320E-003 -5.467224989775873E-005 -8.768551485167278E-002
 -4.289295761367031E-003  1.141014852335702E-004 -9.538199048554284E-002
 -3.765666566226797E-003  2.351639359597597E-004 -0.101181251351450     
 -3.294745987153706E-003  2.823076322879546E-004 -0.103141428452478     
 -2.823269152762413E-003  2.943380732001481E-004 -0.100034412335195     
 -2.345818017266893E-003  2.964680099009701E-004 -9.101429094411255E-002
 -1.868961806240366E-003  2.967022348771152E-004 -7.578004174160878E-002
 -1.401213048471502E-003  2.870636861281413E-004 -5.474396346374029E-002
 -9.429334337037336E-004  2.447003800757202E-004 -2.909295509755518E-002
 -4.284532373283900E-004  2.029007889988684E-005 -8.208518076399901E-004
 -4.270871789183035E-004  1.531863549572128E-008 -8.231731154633215E-004
 -4.284396082092389E-004 -2.025807886235567E-005 -8.208491594358420E-004
 -9.428129126791213E-004 -2.445944065919973E-004 -2.909294222503059E-002
 -1.401014334518350E-003 -2.868605337493024E-004 -5.474393950153640E-002
 -1.868695578856726E-003 -2.963652597464066E-004 -7.578000588503836E-002
 -2.345495055289830E-003 -2.959662309534659E-004 -9.101424137163795E-002
 -2.822900444054010E-003 -2.936458123956400E-004 -0.100034346475518     
 -3.294342516720219E-003 -2.814047675865485E-004 -0.103141342633679     
 -3.765239308333799E-003 -2.340358393893310E-004 -0.101181140231227     
 -4.288855685776340E-003 -1.127387972177884E-004 -9.538184572184639E-002
 -5.054752228641241E-003  5.627360435643491E-005 -8.768532494202373E-002
 -4.934534856707620E-003  2.438786673711958E-004 -9.420344970426410E-002
 -4.656281365486344E-003  1.036703692990151E-006 -9.617278247093580E-002
 -4.934320786808341E-003 -2.418071331183435E-004 -9.420326747623371E-002
 -4.780123588496001E-003  7.808406171500835E-005 -0.101838392262443     
 -4.706989160664573E-003  1.154789659833668E-006 -0.102408240473545     
 -4.779913393945180E-003 -7.577538341377311E-005 -0.101838128379478     
 -4.560759380514379E-003 -2.568319881808478E-005 -0.110705167984278     
 -4.558467065111139E-003  1.271000805390861E-006 -0.110654408735164     
 -4.560557207550958E-003  2.822360020874057E-005 -0.110704798402993     
 -4.326930633926890E-003 -6.307719231097859E-005 -0.118519765297991     
 -4.335441340018683E-003  1.381944261865851E-006 -0.118368784479725     
 -4.326741758535112E-003  6.583869051493815E-005 -0.118519277062887     
 -4.092179297208930E-003 -7.082589793400374E-005 -0.123841794227842     
 -4.097319122601019E-003  1.484899140072027E-006 -0.123695748581388     
 -4.092009061731574E-003  7.379250015331154E-005 -0.123841180479512     
 -3.858678457576216E-003 -7.032962488775593E-005 -0.126047654348005     
 -3.860421086906570E-003  1.577197847886494E-006 -0.125897861620590     
 -3.858532191973685E-003  7.348002602483300E-005 -0.126046912772307     
 -3.626000234199703E-003 -6.888051141930882E-005 -0.125358058697009     
 -3.626207600173093E-003  1.656179978786909E-006 -0.125284061733470     
 -3.625883264505512E-003  7.218807685744706E-005 -0.125357192048692     
 -3.393661124292437E-003 -6.764794078810554E-005 -0.122807014425025     
 -3.393554040276024E-003  1.719172805383330E-006 -0.123257798652630     
 -3.393578766176938E-003  7.108071773780593E-005 -0.122806030368069     
 -3.161496875253865E-003 -6.568352760847750E-005 -0.120258297191489     
 -3.162497540466732E-003  1.763543438683283E-006 -0.121971371601554     
 -3.161454417981544E-003  6.920417461722205E-005 -0.120257202314300     
 -2.701410980943329E-003 -6.707747964273163E-005 -0.123491461215217     
 -2.702307927933183E-003  1.786263081320393E-006 -0.125256130403291     
 -2.701464913132245E-003  7.064190087050348E-005 -0.123490229897315     
 -2.471190806237959E-003 -6.770325061685820E-005 -0.129269036363712     
 -2.471805548714451E-003  1.759187331988904E-006 -0.129762484233972     
 -2.471301002799259E-003  7.121278063638398E-005 -0.129267784980185     
 -2.241296586815462E-003 -6.770787961489459E-005 -0.134994998658678     
 -2.241423845492612E-003  1.702590973944588E-006 -0.134926262404467     
 -2.241468711643179E-003  7.110334633629126E-005 -0.134993741537573     
 -2.011394365662916E-003 -6.796727141553086E-005 -0.138676403662024     