# vtk DataFile Version 3.0
 Bridge                                                                         
  
ASCII
DATASET UNSTRUCTURED_GRID
 POINTS        4087 double
   200.000000000000       -10.0000000000000       0.000000000000000E+000
   200.000000000000        10.0000000000000       0.000000000000000E+000
   150.000000000000        10.0000000000000       0.000000000000000E+000
   150.000000000000       -10.0000000000000       0.000000000000000E+000
   100.000000000000        10.0000000000000       0.000000000000000E+000
   100.000000000000       -10.0000000000000       0.000000000000000E+000
   50.0000000000000        10.0000000000000       0.000000000000000E+000
   50.0000000000000       -10.0000000000000       0.000000000000000E+000
  0.000000000000000E+000   10.0000000000000       0.000000000000000E+000
  0.000000000000000E+000  -10.0000000000000       0.000000000000000E+000
  -50.0000000000000        10.0000000000000       0.000000000000000E+000
  -50.0000000000000       -10.0000000000000       0.000000000000000E+000
  -100.000000000000        10.0000000000000       0.000000000000000E+000
  -100.000000000000       -10.0000000000000       0.000000000000000E+000
  -150.000000000000        10.0000000000000       0.000000000000000E+000
  -150.000000000000       -10.0000000000000       0.000000000000000E+000
  -200.000000000000        10.0000000000000       0.000000000000000E+000
  -200.000000000000       -10.0000000000000       0.000000000000000E+000
  -250.000000000000        10.0000000000000       0.000000000000000E+000
  -250.000000000000       -10.0000000000000       0.000000000000000E+000
   250.000000000000       -10.0000000000000       0.000000000000000E+000
   250.000000000000        10.0000000000000       0.000000000000000E+000
   200.000000000000       -5.00000000000000       0.000000000000000E+000
   200.000000000000       0.000000000000000E+000  0.000000000000000E+000
   200.000000000000        5.00000000000000       0.000000000000000E+000
   195.000000000000        10.0000000000000       0.000000000000000E+000
   190.000000000000        10.0000000000000       0.000000000000000E+000
   185.000000000000        10.0000000000000       0.000000000000000E+000
   180.000000000000        10.0000000000000       0.000000000000000E+000
   175.000000000000        10.0000000000000       0.000000000000000E+000
   170.000000000000        10.0000000000000       0.000000000000000E+000
   165.000000000000        10.0000000000000       0.000000000000000E+000
   160.000000000000        10.0000000000000       0.000000000000000E+000
   155.000000000000        10.0000000000000       0.000000000000000E+000
   150.000000000000        5.00000000000000       0.000000000000000E+000
   150.000000000000       0.000000000000000E+000  0.000000000000000E+000
   150.000000000000       -5.00000000000000       0.000000000000000E+000
   155.000000000000       -10.0000000000000       0.000000000000000E+000
   160.000000000000       -10.0000000000000       0.000000000000000E+000
   165.000000000000       -10.0000000000000       0.000000000000000E+000
   170.000000000000       -10.0000000000000       0.000000000000000E+000
   175.000000000000       -10.0000000000000       0.000000000000000E+000
   180.000000000000       -10.0000000000000       0.000000000000000E+000
   185.000000000000       -10.0000000000000       0.000000000000000E+000
   190.000000000000       -10.0000000000000       0.000000000000000E+000
   195.000000000000       -10.0000000000000       0.000000000000000E+000
   145.000000000000        10.0000000000000       0.000000000000000E+000
   140.000000000000        10.0000000000000       0.000000000000000E+000
   135.000000000000        10.0000000000000       0.000000000000000E+000
   130.000000000000        10.0000000000000       0.000000000000000E+000
   125.000000000000        10.0000000000000       0.000000000000000E+000
   120.000000000000        10.0000000000000       0.000000000000000E+000
   115.000000000000        10.0000000000000       0.000000000000000E+000
   110.000000000000        10.0000000000000       0.000000000000000E+000
   105.000000000000        10.0000000000000       0.000000000000000E+000
   100.000000000000        5.00000000000000       0.000000000000000E+000
   100.000000000000       0.000000000000000E+000  0.000000000000000E+000
   100.000000000000       -5.00000000000000       0.000000000000000E+000
   105.000000000000       -10.0000000000000       0.000000000000000E+000
   110.000000000000       -10.0000000000000       0.000000000000000E+000
   115.000000000000       -10.0000000000000       0.000000000000000E+000
   120.000000000000       -10.0000000000000       0.000000000000000E+000
   125.000000000000       -10.0000000000000       0.000000000000000E+000
   130.000000000000       -10.0000000000000       0.000000000000000E+000
   135.000000000000       -10.0000000000000       0.000000000000000E+000
   140.000000000000       -10.0000000000000       0.000000000000000E+000
   145.000000000000       -10.0000000000000       0.000000000000000E+000
   95.0000000000000        10.0000000000000       0.000000000000000E+000
   90.0000000000000        10.0000000000000       0.000000000000000E+000
   85.0000000000000        10.0000000000000       0.000000000000000E+000
   80.0000000000000        10.0000000000000       0.000000000000000E+000
   75.0000000000000        10.0000000000000       0.000000000000000E+000
   70.0000000000000        10.0000000000000       0.000000000000000E+000
   65.0000000000000        10.0000000000000       0.000000000000000E+000
   60.0000000000000        10.0000000000000       0.000000000000000E+000
   55.0000000000000        10.0000000000000       0.000000000000000E+000
   50.0000000000000        5.00000000000000       0.000000000000000E+000
   50.0000000000000       0.000000000000000E+000  0.000000000000000E+000
   50.0000000000000       -5.00000000000000       0.000000000000000E+000
   55.0000000000000       -10.0000000000000       0.000000000000000E+000
   60.0000000000000       -10.0000000000000       0.000000000000000E+000
   65.0000000000000       -10.0000000000000       0.000000000000000E+000
   70.0000000000000       -10.0000000000000       0.000000000000000E+000
   75.0000000000000       -10.0000000000000       0.000000000000000E+000
   80.0000000000000       -10.0000000000000       0.000000000000000E+000
   85.0000000000000       -10.0000000000000       0.000000000000000E+000
   90.0000000000000       -10.0000000000000       0.000000000000000E+000
   95.0000000000000       -10.0000000000000       0.000000000000000E+000
   45.0000000000000        10.0000000000000       0.000000000000000E+000
   40.0000000000000        10.0000000000000       0.000000000000000E+000
   35.0000000000000        10.0000000000000       0.000000000000000E+000
   30.0000000000000        10.0000000000000       0.000000000000000E+000
   25.0000000000000        10.0000000000000       0.000000000000000E+000
   20.0000000000000        10.0000000000000       0.000000000000000E+000
   15.0000000000000        10.0000000000000       0.000000000000000E+000
   10.0000000000000        10.0000000000000       0.000000000000000E+000
   5.00000000000000        10.0000000000000       0.000000000000000E+000
  0.000000000000000E+000   5.00000000000000       0.000000000000000E+000
  0.000000000000000E+000  0.000000000000000E+000  0.000000000000000E+000
  0.000000000000000E+000  -5.00000000000000       0.000000000000000E+000
   5.00000000000000       -10.0000000000000       0.000000000000000E+000
   10.0000000000000       -10.0000000000000       0.000000000000000E+000
   15.0000000000000       -10.0000000000000       0.000000000000000E+000
   20.0000000000000       -10.0000000000000       0.000000000000000E+000
   25.0000000000000       -10.0000000000000       0.000000000000000E+000
   30.0000000000000       -10.0000000000000       0.000000000000000E+000
   35.0000000000000       -10.0000000000000       0.000000000000000E+000
   40.0000000000000       -10.0000000000000       0.000000000000000E+000
   45.0000000000000       -10.0000000000000       0.000000000000000E+000
  -5.00000000000000        10.0000000000000       0.000000000000000E+000
  -10.0000000000000        10.0000000000000       0.000000000000000E+000
  -15.0000000000000        10.0000000000000       0.000000000000000E+000
  -20.0000000000000        10.0000000000000       0.000000000000000E+000
  -25.0000000000000        10.0000000000000       0.000000000000000E+000
  -30.0000000000000        10.0000000000000       0.000000000000000E+000
  -35.0000000000000        10.0000000000000       0.000000000000000E+000
  -40.0000000000000        10.0000000000000       0.000000000000000E+000
  -45.0000000000000        10.0000000000000       0.000000000000000E+000
  -50.0000000000000        5.00000000000000       0.000000000000000E+000
  -50.0000000000000       0.000000000000000E+000  0.000000000000000E+000
  -50.0000000000000       -5.00000000000000       0.000000000000000E+000
  -45.0000000000000       -10.0000000000000       0.000000000000000E+000
  -40.0000000000000       -10.0000000000000       0.000000000000000E+000
  -35.0000000000000       -10.0000000000000       0.000000000000000E+000
  -30.0000000000000       -10.0000000000000       0.000000000000000E+000
  -25.0000000000000       -10.0000000000000       0.000000000000000E+000
  -20.0000000000000       -10.0000000000000       0.000000000000000E+000
  -15.0000000000000       -10.0000000000000       0.000000000000000E+000
  -10.0000000000000       -10.0000000000000       0.000000000000000E+000
  -5.00000000000000       -10.0000000000000       0.000000000000000E+000
  -55.0000000000000        10.0000000000000       0.000000000000000E+000
  -60.0000000000000        10.0000000000000       0.000000000000000E+000
  -65.0000000000000        10.0000000000000       0.000000000000000E+000
  -70.0000000000000        10.0000000000000       0.000000000000000E+000
[...]
 CELL_DATA        2884
 POINT_DATA        4087
 FIELD Result            2
 Displacement_Load_Case01            3        4087 double
 -6.573186353763994E-003  7.268962098155796E-005 -8.298598112353163E-002
 -6.572761037155769E-003 -7.085243571474100E-005 -8.298573826712891E-002
 -2.925322703397318E-003  1.335380912768848E-004 -0.113299736470995     
 -2.925329120542529E-003 -1.299943990434115E-004 -0.113302068640929     
 -2.840692509720526E-004  8.882190290046346E-005 -0.103767442360696     
 -2.825718283469840E-004 -8.840123590743371E-005 -0.103770009956427     
 -2.221526710989559E-004  8.151235689807305E-006 -6.538647191836577E-002
 -2.174138183014659E-004 -2.275222615739683E-005 -6.539185885255669E-002
  1.111628764030059E-004 -5.193507547431013E-005 -1.327075673653920E-002
  1.201015167837869E-004  3.521220608985652E-006 -1.327147504415513E-002
  4.618486312429708E-004 -3.826709725043841E-005 -6.546654226936814E-002
  4.754577070641211E-004 -7.080260568546910E-005 -6.546890062401485E-002
  5.331242764778690E-004  2.899337426083973E-006 -0.103963509280556     
  5.443790072220438E-004 -1.785533208321528E-004 -0.103965633392850     
  3.240608016006723E-003  2.257392102108618E-005 -0.113852616961966     
  3.247491667640501E-003 -2.480070874798544E-004 -0.113854513353451     
  6.939103029630508E-003 -1.832973359004726E-004 -8.390495941611557E-002
  6.934658428000904E-003 -5.266113964045304E-005 -8.393221090790794E-002
  9.861870000801502E-004 -1.983082355900039E-004 -1.825971936918783E-003
  9.703144849755461E-004  8.311837766504185E-006 -1.857177170082890E-003
 -4.469774233056032E-004  5.174004583315037E-005 -7.975294296896849E-004
 -4.469485004662552E-004 -5.170273853524935E-005 -7.975285187217525E-004
 -4.724039298644636E-003  3.734454436406850E-005 -9.057993199509061E-002
 -4.574063128399240E-003  9.186071297869046E-007 -9.336243169877990E-002
 -4.723821464154824E-003 -3.550735156739700E-005 -9.057980273088674E-002
 -5.307346220750342E-003 -2.044756704006952E-004 -8.976564793208752E-002
 -4.793019173026122E-003 -3.647050093747495E-005 -0.100610162985627     
 -4.521210427828070E-003  8.448725476593667E-005 -0.110799980009332     
 -4.302475623836988E-003  1.316163277771928E-004 -0.118892166975677     
 -4.083193605969974E-003  1.429941614657502E-004 -0.124212985565352     
 -3.856714528678887E-003  1.433813096960635E-004 -0.126423524740349     
 -3.626251784715586E-003  1.420085325461078E-004 -0.125516284751825     
 -3.394431389354236E-003  1.405851458495438E-004 -0.121844661358969     
 -3.161642116149746E-003  1.388532029220614E-004 -0.116484575432658     
 -2.931759191153491E-003  6.860784253275103E-005 -0.120209555125748     
 -2.932257074103709E-003  1.786764862043934E-006 -0.122662429226140     
 -2.931756199771271E-003 -6.504174478072234E-005 -0.120210747090405     
 -3.161739109811468E-003 -1.353516690801220E-004 -0.116486751645264     
 -3.394608323718790E-003 -1.371691505722747E-004 -0.121846633367396     
 -3.626497975003599E-003 -1.387153451682076E-004 -0.125518018972653     
 -3.857019310963113E-003 -1.402428939496371E-004 -0.126425007567237     
 -4.083546327597401E-003 -1.400371463030065E-004 -0.124214212958048     
 -4.302865635070431E-003 -1.288620196114427E-004 -0.118893143401134     
 -4.521627090602968E-003 -8.195163199223855E-005 -0.110800719989450     
 -4.793451841158603E-003  3.877656935044459E-005 -0.100610692209533     
 -5.307783246063237E-003  2.065464134753968E-004 -8.976600255149188E-002
 -2.698786615305587E-003  1.397448130326555E-004 -0.119543208019532     
 -2.470573157207392E-003  1.401107139162628E-004 -0.128228516759489     
 -2.241451313707942E-003  1.401103653026633E-004 -0.135141441669204     
 -2.012295003511900E-003  1.401726335492492E-004 -0.139068783677161     
 -1.784114742846892E-003  1.398672968549525E-004 -0.139551927151976     
 -1.557817875610701E-003  1.366653300987690E-004 -0.136496784304234     
 -1.331579965295590E-003  1.240106720956295E-004 -0.130150883781348     
 -1.091106839638005E-003  9.208309243061502E-005 -0.121128607273842     
 -7.863999016941487E-004  4.828179548045140E-005 -0.110826828307087     
 -7.724336786529696E-004  4.347591907011981E-005 -0.110607497493645     
 -8.116548409429897E-004  2.456777612920787E-007 -0.113117067468998     
 -7.716515728870870E-004 -4.300225831829347E-005 -0.110608834140429     
 -7.850902832870751E-004 -4.717488257665070E-005 -0.110829321030874     
 -1.089986601775345E-003 -9.038470273845493E-005 -0.121131060318268     
 -1.330640162178685E-003 -1.218148646769849E-004 -0.130153323905852     
 -1.557047187901059E-003 -1.340599798980774E-004 -0.136499236830205     
 -1.783501836580445E-003 -1.369341104684308E-004 -0.139554403937649     
 -2.011828572429198E-003 -1.369876728828103E-004 -0.139071284626490     
 -2.241120059080785E-003 -1.367440381499100E-004 -0.135143956421885     
 -2.470365791430223E-003 -1.366277924749781E-004 -0.128231023292552     
 -2.698691852156829E-003 -1.362044033840868E-004 -0.119545662254833     
 -5.174726584125953E-004  1.165112149529624E-004 -0.106717334566737     
 -5.511811581731151E-004  7.052560338395311E-005 -0.112156721902786     
 -5.209815549016077E-004  3.770717478929024E-005 -0.116142857477856     
 -4.770605411526512E-004  2.470677278882320E-005 -0.117395073741338     
 -4.334708215162351E-004  2.110568259523226E-005 -0.115342656509207     
 -3.919364434405870E-004  2.023985211758717E-005 -0.109776806069546     
 -3.516204513462811E-004  1.942378346235101E-005 -0.100840832602881     
 -3.115500764807214E-004  1.754558863733112E-005 -8.905437291309314E-002
 -2.699993983447966E-004  1.443696674636055E-005 -7.572805939703198E-002
 -2.340398999006547E-004  1.485886303468744E-006 -7.228541695245169E-002
 -2.339182557715932E-004 -7.244773398057107E-006 -7.473601019807867E-002
 -2.316619808937007E-004 -1.600335269313863E-005 -7.228806739187810E-002
 -2.656301350070929E-004 -2.677938808437383E-005 -7.573344398720291E-002
 -3.075407781722629E-004 -2.781032141356480E-005 -8.905959584120819E-002
 -3.479606337689916E-004 -2.778839734613943E-005 -0.100845796193837     
 -3.886153624318933E-004 -2.687644227827775E-005 -0.109781436666193     
 -4.304777084040127E-004 -2.618093189541403E-005 -0.115346910713087     
 -4.743846227269045E-004 -2.838197312692351E-005 -0.117398934472304     
 -5.186120312671671E-004 -4.013824630023531E-005 -0.116146331885372     
 -5.491072253875389E-004 -7.186254894017959E-005 -0.112159841032426     
 -5.156858676283445E-004 -1.168981510298366E-004 -0.106720139798104     
 -1.939515869687225E-004  1.393448640117663E-005 -6.468197160089323E-002
 -1.614216918237550E-004  1.237189429170778E-005 -6.607525901969194E-002
 -1.270143484911877E-004  1.038359991695816E-005 -6.603827389804476E-002
 -9.197936972877190E-005  8.547337643604527E-006 -6.360165239264516E-002
 -5.686409488950607E-005  6.949765020588720E-006 -5.848442327735679E-002
 -2.200178928310980E-005  5.507934561271012E-006 -5.077905104375709E-002
  1.202938135563934E-005  3.916501217686244E-006 -4.095747624127773E-002
  4.428566473355349E-005  2.384084163042980E-007 -2.987891225361355E-002
  7.503557865948890E-005 -8.043379539219828E-006 -1.916714820267754E-002
  1.166908329213211E-004 -3.112769497008657E-005 -1.981596773241731E-002
  1.192626865619155E-004 -2.417838474842666E-005 -2.237746345126214E-002
  1.212901387323696E-004 -1.724667058029852E-005 -1.981513843079760E-002
  8.358084551149279E-005 -3.608628356375248E-005 -1.916822029151894E-002
  5.238511598539965E-005 -4.020798740783328E-005 -2.988052548224335E-002
  1.967699394102198E-005 -3.996186297615638E-005 -4.095985977568371E-002
 -1.479782515808676E-005 -3.785516828182842E-005 -5.078208133720020E-002
 -5.009418734012990E-005 -3.581857585760576E-005 -5.848800288093745E-002
 -8.563409495112060E-005 -3.415235211298735E-005 -6.360572298611075E-002
 -1.210843181310714E-004 -3.293479158848062E-005 -6.604277790592525E-002
 -1.558974981860513E-004 -3.207447546236745E-005 -6.608013004463140E-002
 -1.888240338340105E-004 -3.098896814985791E-005 -6.468713906564759E-002
  1.521141717217613E-004 -1.310928399424978E-005 -1.915907858100425E-002
  1.850580513657512E-004 -8.892402983987723E-006 -2.987462657886556E-002
  2.186702424792004E-004 -9.497814156703571E-006 -4.096023641089677E-002
  2.538949140762818E-004 -1.249298526077268E-005 -5.079068440761220E-002
  2.899833013898286E-004 -1.578960255060431E-005 -5.850646648454393E-002
  3.263820348561248E-004 -1.897576999348063E-005 -6.363539064666458E-002
  3.627453160372036E-004 -2.191573994951575E-005 -6.608452613205133E-002
  3.985075940633086E-004 -2.466760250304390E-005 -6.613425630294753E-002
  4.323855759071398E-004 -2.779845482480918E-005 -6.475309574246707E-002
  4.786256351228585E-004 -4.536982153473099E-005 -7.236362567317908E-002
  4.831033405001268E-004 -5.451806809352482E-005 -7.481304933466344E-002
  4.853986317778758E-004 -6.367478739402010E-005 -7.236473270420678E-002
  4.458517313250488E-004 -7.439329796960426E-005 -6.475537170178050E-002
  4.117578681354862E-004 -7.073401846570723E-005 -6.613613988509402E-002
  3.757098790325673E-004 -6.682172607868038E-005 -6.608587158337718E-002
  3.389918497498985E-004 -6.325779967336104E-005 -6.363610512062093E-002
  3.021693596383879E-004 -6.013471565094265E-005 -5.850653430050081E-002
  2.655882426490254E-004 -5.735118094517375E-005 -5.079017168448721E-002
  2.298019963785341E-004 -5.453027411213443E-005 -4.095927109349674E-002
  1.955607304575723E-004 -4.961415205062678E-005 -2.987341665591312E-002
  1.619087701743793E-004 -4.020422765288952E-005 -1.915828408747030E-002
  5.114054247965654E-004 -3.660584176929841E-005 -7.581494831572191E-002
  5.545807060864604E-004 -3.799948002390267E-005 -8.914932156021371E-002
  5.962696585544309E-004 -4.054263406712107E-005 -0.100944167830226     
  6.382342192522941E-004 -4.405636851680971E-005 -0.109888996158434     
  6.814715277928135E-004 -4.739541946356761E-005 -0.115464543213089     
  7.268382940712317E-004 -4.780018033600865E-005 -0.117527954849913     
  7.725706418662856E-004 -3.844373716259848E-005 -0.116288492897276     
  8.042995263677646E-004 -8.668969680984640E-006 -0.112317259151066     
  7.707312562857946E-004  3.472910902459668E-005 -0.106895057239150     
  1.035476258702063E-003 -4.356808805679443E-005 -0.110804618610145     
  1.078873808052774E-003 -8.787738667443562E-005 -0.113314487485805     
  1.041279288032310E-003 -1.321614864238588E-004 -0.110805710585452     
  7.826488544864523E-004 -2.044514229989315E-004 -0.106897161279371     
  8.167055840444516E-004 -1.548426586235402E-004 -0.112319352449302     
  7.853755552235817E-004 -1.186480650918802E-004 -0.116290565754854     
  7.399713757949794E-004 -1.026939640884237E-004 -0.117530013458918     
  6.948621316223843E-004 -9.635448339948314E-005 -0.115466596685869     
  6.518114813248386E-004 -9.283822932973284E-005 -0.109891055577746     
  6.099626625633904E-004 -8.942105972557805E-005 -0.100946248052858     
  5.683185692247065E-004 -8.499299217646557E-005 -8.915143851376796E-002
  5.251165380636790E-004 -7.941044082143971E-005 -7.581713160510153E-002
  1.047287854909510E-003 -4.163378968149649E-005 -0.111046116431309     
  1.359483136686487E-003  1.164000662398189E-008 -0.121377469778886     
  1.606055506607959E-003  2.961381370323712E-005 -0.130432930729524     
  1.838111179441449E-003  3.962935595134972E-005 -0.136814760079915     
  2.070262006999025E-003  4.011800815944348E-005 -0.139907960780881     
  2.304373857696020E-003  3.780345812342557E-005 -0.139464416582119     
  2.539516092125128E-003  3.530163871857702E-005 -0.135577675145174     
  2.774625736886777E-003  3.309575018522452E-005 -0.128705774930255     
  3.008694035952890E-003  3.075328134985026E-005 -0.120060829638484     
  3.250030648842391E-003 -4.421587826913398E-005 -0.120761891009646     
  3.252340805143431E-003 -1.128328541485266E-004 -0.123214629822184     
  3.253447268104677E-003 -1.813916001211947E-004 -0.120762962649850     
  3.016355237358950E-003 -2.524326713251168E-004 -0.120062125012490     
  2.782986222468696E-003 -2.506553637515122E-004 -0.128706745439953     
  2.548503759098282E-003 -2.484106537766707E-004 -0.135578561581179     
  2.313917868109327E-003 -2.461662754189681E-004 -0.139465393320816     
  2.080291485077118E-003 -2.434741676884426E-004 -0.139909133248722     
  1.848555295595737E-003 -2.377538492802676E-004 -0.136816183364026     
  1.616843647104965E-003 -2.223171355649720E-004 -0.130434618838805     
  1.370544645668127E-003 -1.871355183813752E-004 -0.121379398820639     
  1.058533158921047E-003 -1.397836635643294E-004 -0.111048216621254     
  3.484200191374156E-003  2.615014188328155E-005 -0.117072096845682     
  3.723782629173833E-003  2.656857216294656E-005 -0.122471700941735     
  3.962264692223192E-003  2.688520065685781E-005 -0.126183667003517     
  4.199400428466653E-003  2.735440775354728E-005 -0.127131111267801     
  4.432634831551571E-003  2.633467368378469E-005 -0.124960189800037     
  4.658799817865354E-003  1.474694658655173E-005 -0.119677977317005     
  4.884457551191713E-003 -3.182927477292416E-005 -0.111622871622389     
  5.162538657825328E-003 -1.509660909042776E-004 -0.101468080508931     
  5.680062124825061E-003 -3.162121076800021E-004 -9.065602779313903E-002
  5.112600065864106E-003 -1.513110943176991E-004 -9.150442265502291E-002
  4.963677416921657E-003 -1.181523579374163E-004 -9.429360904608174E-002
  5.110635243092858E-003 -8.490726709212453E-005 -9.151849872411945E-002
  5.677208500658102E-003  7.856805208191488E-005 -9.068183224128244E-002
  5.161065227564469E-003 -8.762718279944848E-005 -0.101491576280485     
  4.884269731929922E-003 -2.070644330593913E-004 -0.111643532395790     
  4.659829187275426E-003 -2.533207701371103E-004 -0.119695569367180     
  4.434813109942521E-003 -2.639968905562351E-004 -0.124974613013064     
  4.202659035592836E-003 -2.635476834339110E-004 -0.127142386780200     
  3.966534979943486E-003 -2.610865126484236E-004 -0.126191953590210     
  3.728995909446245E-003 -2.582889961604790E-004 -0.122477307795253     
  3.490286434588661E-003 -2.549347340830973E-004 -0.117075470843884     
  5.450068202696429E-003 -5.663040995102438E-005 -8.862867709278187E-002
  4.703588345701911E-003 -2.220444527559249E-004 -9.634617763497716E-002
  4.196329066541453E-003 -3.400980138162124E-004 -0.102163572861681     
  3.741152542943652E-003 -3.848652846187301E-004 -0.104139228113029     
  3.285414743581559E-003 -3.945585806304981E-004 -0.101045477468383     
  2.823495798222574E-003 -3.940145119523074E-004 -9.203690959957174E-002
  2.361186323535488E-003 -3.915222945183830E-004 -7.681249058611726E-002
  1.905905900168224E-003 -3.816645477455456E-004 -5.578325603883707E-002
  1.459140240339306E-003 -3.458008101493118E-004 -3.013253769053350E-002
  9.595283258874954E-004 -1.375592125165804E-004 -1.889842172958795E-003
  9.535960956289952E-004 -9.511354895367376E-005 -1.905833030650104E-003
  9.515831808777267E-004 -5.261939854271227E-005 -1.905532462797581E-003
  1.444767504445614E-003  1.485028562524112E-004 -3.016371746547220E-002
  1.892944630572087E-003  1.776472038987189E-004 -5.581434794125355E-002
  2.349568940689119E-003  1.814774600731987E-004 -7.684346715288524E-002
  2.813150982250863E-003  1.785960741565546E-004 -9.206774412160648E-002
  3.276268955768630E-003  1.743850019475509E-004 -0.101076119698187     
  3.733132341005839E-003  1.605176527342092E-004 -0.104169600980484     
  4.189361311724911E-003  1.121205963657012E-004 -0.102193575472634     
  4.697599934996965E-003 -9.049368027788382E-006 -9.637566114793392E-002
  5.444960039456980E-003 -1.770975983779900E-004 -8.865727373320277E-002
 -5.055193161702097E-003 -5.467224989803999E-005 -8.768551485166992E-002
 -4.289295761366834E-003  1.141014852333557E-004 -9.538199048553875E-002
 -3.765666566226628E-003  2.351639359596022E-004 -0.101181251351445     
 -3.294745987153563E-003  2.823076322878443E-004 -0.103141428452472     
 -2.823269152762297E-003  2.943380732000753E-004 -0.100034412335189     
 -2.345818017266800E-003  2.964680099009258E-004 -9.101429094410701E-002
 -1.868961806240296E-003  2.967022348770918E-004 -7.578004174160395E-002
 -1.401213048471453E-003  2.870636861281316E-004 -5.474396346373670E-002
 -9.429334337037045E-004  2.447003800757182E-004 -2.909295509755327E-002
 -4.284532373283814E-004  2.029007889989265E-005 -8.208518076399823E-004
 -4.270871789182958E-004  1.531863550200192E-008 -8.231731154633153E-004
 -4.284396082092323E-004 -2.025807886234900E-005 -8.208491594358366E-004
 -9.428129126791174E-004 -2.445944065919905E-004 -2.909294222502895E-002
 -1.401014334518351E-003 -2.868605337493019E-004 -5.474393950153317E-002
 -1.868695578856733E-003 -2.963652597464198E-004 -7.578000588503377E-002
 -2.345495055289844E-003 -2.959662309535006E-004 -9.101424137163247E-002
 -2.822900444054034E-003 -2.936458123957041E-004 -0.100034346475512     
 -3.294342516720253E-003 -2.814047675866508E-004 -0.103141342633674     
 -3.765239308333845E-003 -2.340358393894807E-004 -0.101181140231223     
 -4.288855685776401E-003 -1.127387972179942E-004 -9.538184572184359E-002
 -5.054752228641321E-003  5.627360435616216E-005 -8.768532494202236E-002
 -4.934534856707457E-003  2.438786673707531E-004 -9.420344970426148E-002
 -4.656281365486256E-003  1.036703692550390E-006 -9.617278247093397E-002
 -4.934320786808334E-003 -2.418071331187839E-004 -9.420326747623307E-002
 -4.780123588495835E-003  7.808406171449115E-005 -0.101838392262440     
 -4.706989160664481E-003  1.154789659316785E-006 -0.102408240473543     
 -4.779913393945161E-003 -7.577538341428793E-005 -0.101838128379478     
 -4.560759380514216E-003 -2.568319881866955E-005 -0.110705167984274     
 -4.558467065111043E-003  1.271000804806339E-006 -0.110654408735161     
 -4.560557207550929E-003  2.822360020815838E-005 -0.110704798402993     
 -4.326930633926729E-003 -6.307719231162396E-005 -0.118519765297986     
 -4.335441340018582E-003  1.381944261220828E-006 -0.118368784479722     
 -4.326741758535070E-003  6.583869051429569E-005 -0.118519277062886     
 -4.092179297208771E-003 -7.082589793470301E-005 -0.123841794227836     
 -4.097319122600912E-003  1.484899139373418E-006 -0.123695748581384     
 -4.092009061731520E-003  7.379250015261617E-005 -0.123841180479510     
 -3.858678457576059E-003 -7.032962488850219E-005 -0.126047654347998     
 -3.860421086906457E-003  1.577197847141259E-006 -0.125897861620586     
 -3.858532191973616E-003  7.348002602409101E-005 -0.126046912772305     
 -3.626000234199546E-003 -6.888051142009439E-005 -0.125358058697003     
 -3.626207600172974E-003  1.656179978002216E-006 -0.125284061733466     
 -3.625883264505428E-003  7.218807685666546E-005 -0.125357192048690     
 -3.393661124292281E-003 -6.764794078892365E-005 -0.122807014425020     
 -3.393554040275899E-003  1.719172804566898E-006 -0.123257798652627     
 -3.393578766176841E-003  7.108071773699284E-005 -0.122806030368067     
 -3.161496875253709E-003 -6.568352760932120E-005 -0.120258297191485     
 -3.162497540466598E-003  1.763543437841613E-006 -0.121971371601552     
 -3.161454417981435E-003  6.920417461638450E-005 -0.120257202314300     
 -2.701410980943174E-003 -6.707747964360676E-005 -0.123491461215218     
 -2.702307927933035E-003  1.786263080445718E-006 -0.125256130403293     
 -2.701464913132106E-003  7.064190086963181E-005 -0.123490229897317     
 -2.471190806237802E-003 -6.770325061774184E-005 -0.129269036363716     
 -2.471805548714294E-003  1.759187331106487E-006 -0.129762484233974     
 -2.471301002799104E-003  7.121278063550500E-005 -0.129267784980187     
 -2.241296586815304E-003 -6.770787961577877E-005 -0.134994998658683     
 -2.241423845492447E-003  1.702590973061922E-006 -0.134926262404470     
 -2.241468711643007E-003  7.110334633541257E-005 -0.134993741537576     
 -2.011394365662756E-003 -6.796727141640694E-005 -0.138676403662030     