# vtk DataFile Version 3.0
 Bridge test                                                                    
  
ASCII
DATASET UNSTRUCTURED_GRID
 POINTS          18 double
  0.000000000000000E+000  0.000000000000000E+000  0.000000000000000E+000
   1.00000000000000       0.000000000000000E+000  0.000000000000000E+000
   1.00000000000000        1.00000000000000       0.000000000000000E+000
  0.000000000000000E+000   1.00000000000000       0.000000000000000E+000
  0.000000000000000E+000  0.000000000000000E+000   1.00000000000000     
   1.00000000000000       0.000000000000000E+000   1.00000000000000     
   1.00000000000000        1.00000000000000        1.00000000000000     
  0.000000000000000E+000   1.00000000000000        1.00000000000000     
  0.000000000000000E+000   3.00000000000000       0.000000000000000E+000
   1.00000000000000        3.00000000000000       0.000000000000000E+000
   1.00000000000000        4.00000000000000       0.000000000000000E+000
  0.000000000000000E+000   4.00000000000000       0.000000000000000E+000
  0.000000000000000E+000   3.00000000000000        1.00000000000000     
   1.00000000000000        3.00000000000000        1.00000000000000     
   1.00000000000000        4.00000000000000        1.00000000000000     
  0.000000000000000E+000   4.00000000000000        1.00000000000000     
   1.00000000000000        2.00000000000000        1.00000000000000     
  0.000000000000000E+000   2.00000000000000        1.00000000000000     
 CELLS            4          28
           4           6          16          17           7
           4          16          13          12          17
           8           0           1           2           3           4
           5           6           7
           8           8           9          10          11          12
          13          14          15
 CELL_TYPES            4
           9           9          12          12
 CELL_DATA           4
 POINT_DATA          18
 FIELD Result            2
 Displacement_Load_Case01            3          18 double
  0.000000000000000E+000  0.000000000000000E+000  0.000000000000000E+000
  0.000000000000000E+000  0.000000000000000E+000  0.000000000000000E+000
  0.000000000000000E+000  0.000000000000000E+000  0.000000000000000E+000
  0.000000000000000E+000  0.000000000000000E+000  0.000000000000000E+000
 -9.793843926238166E-002 -0.845881740093244       -170.129192396872     
   11.8270323341561        330.105936517861      -0.256868644643178     
 -0.204510863092692        171.747474525893        11.0938241795650     
  1.194683630591607E-311  1.194683630591607E-311  8.912382324129219E-313
  0.000000000000000E+000  0.000000000000000E+000  0.000000000000000E+000
  0.000000000000000E+000  0.000000000000000E+000  0.000000000000000E+000
  0.000000000000000E+000  0.000000000000000E+000  0.000000000000000E+000
  0.000000000000000E+000  0.000000000000000E+000  0.000000000000000E+000
  9.124581903275153E-313  2.121995791459338E-314  8.912382324129219E-313
  6.365987394140640E-314  1.660060570026588E-321  2.121995790965272E-313
  0.000000000000000E+000  3.211707366780192E-315  2.334195370259426E-313
  8.944479665506818E-313  2.366292709166697E-313  1.697596634501448E-313
  4.243991587365267E-314  8.504145854118622E+265  4.701525041962806E-122
  3.780332299308975E-122  1.273197476506019E-313  7.639184875340283E-313
 Stress_Load_Case01            5          18 double
  -555555551.567060       -166666669.658039       -166666669.658039     
  -777777805.697249        500000008.974116     
  -333333330.341961        222222248.147445        500000008.974116     
  -999999991.025884        3111111055.27217     
   333333330.341961       -444444412.536478       -333333330.341961     
   999999991.025884       -888888890.883137     
  -166666669.658039       -555555551.567059        166666669.658039     
  -500000008.974116        222222248.147445     
   166666669.658039       -888888890.883137       -999999991.025884     
   500000008.974116       -777777805.697249     
  -333333330.341961        500000008.974116        222222248.147445     
  -999999991.025884        999999991.025884     
  1.040639646680647E+274  3.468798822268827E+274  9.215750631321807E+273
 -1.522550722083671E+275 -1.943757237596818E+275
  6.999177196076477E+273  2.333059065358831E+274  2.007589661269761E+274
 -2.094963559566311E+275 -3.798962162787046E+274
   166666669.658039       -999999991.025884       -888888890.883137     
   500000008.974116       -500000000.000000     
  -888888890.883137       -999999991.025884        166666669.658039     
   222222248.147445        333333330.341961     
   3111111055.27217        999999991.025884       -999999991.025884     
  -444444412.536478       -333333330.341961     
  -777777805.697249       -500000008.974116        500000008.974116     
  -555555551.567060        166666669.658039     
 -7.286356141073421E+274 -5.229806206563518E+274 -1.098329538541495E+274
 -9.320248408441990E-113 -3.270825328507181E+275
 -5.092378651474803E+274 -4.865958785478773E+274 -4.096843702805860E+273
 -1.022151874826467E-112 -3.270825328507179E+275
  2.121995799858454E-314  9.162098199864257E-310  0.000000000000000E+000
   333333330.341961        222222248.147445     
  -500000008.974116       -777777805.697249        500000008.974116     
  -166666669.658039       -888888890.883137     
 -2.100839063306440E+274 -8.923018765232404E+273  2.162201932047306E+273
 -7.349639536115667E+274 -2.685903696641251E+275
 -5.716967377271618E+274 -3.610504463851796E+274 -2.619262757616265E+274
 -1.814643120961231E+274 -5.270215744925372E+275
