# vtk DataFile Version 3.0
 a test to STAP90                                                               
  
ASCII
DATASET UNSTRUCTURED_GRID
 POINTS           8 double
  0.000000000000000E+000  0.000000000000000E+000  0.000000000000000E+000
   1.00000000000000       0.000000000000000E+000  0.000000000000000E+000
  0.000000000000000E+000   1.00000000000000       0.000000000000000E+000
  0.000000000000000E+000  0.000000000000000E+000   1.00000000000000     
   1.00000000000000        1.00000000000000       0.000000000000000E+000
   1.00000000000000       0.000000000000000E+000   1.00000000000000     
  0.000000000000000E+000   1.00000000000000        1.00000000000000     
   1.00000000000000        1.00000000000000        1.00000000000000     
 CELLS            5          25
           4           0           4           5           1
           4           0           4           6           5
           4           0           4           2           6
           4           0           5           6           3
           4           4           6           5           7
 CELL_TYPES            5
          10          10          10          10          10
 CELL_DATA           5
 POINT_DATA           8
 FIELD Result            3
 Displacement_Load_Case01            3           8 double
  0.000000000000000E+000  0.000000000000000E+000  0.000000000000000E+000
  1.180690028695174E-002  0.000000000000000E+000  0.000000000000000E+000
  0.000000000000000E+000 -1.580599713048267E-003  0.000000000000000E+000
  2.387236588669166E-003 -7.850263411330842E-003  2.189306491613005E-002
  7.422741059112775E-003  6.185241059112770E-003  0.000000000000000E+000
  8.861296446515492E-003 -2.248862690199333E-003  1.573453194348158E-002
  3.263637309800676E-003  2.336296446515479E-003  2.068453194348159E-002
  9.539535910062260E-003  8.189535910062246E-003  2.226880730994360E-002
 Stress_Load_Case01            6           8 double
   20.4560462591818        17.2368154899510        29.0494908317833     
   2.82290775926953       -2.20344660124787       -1.04729275509402     
   22.9361895453798        18.4388621631087        26.0782948706037     
  -3.50732738227117       -1.79909015215947       -2.35648307234900     
   16.5488621631087        9.34618954537983        27.1582948706037     
   6.21267261772883        3.13351692765100        2.61090984784054     
   20.6007217390061        23.5707217390061        32.9359257856331     
   5.18224115381042       -7.24703710718344       -3.01703710718344     
   20.4611381612549        17.3803689304857        29.2311684727483     
   2.83942390844813        3.21112773764162        1.25189696841085     
   22.0195456904462        22.8513428511112        31.4533342092980     
   2.44310411463336      -0.781393044986998      -0.912698014290680     
   19.5628813126496        19.3541610750616        31.8687188246827     
   6.18156565309491        1.11576352417085       0.997837724243754     
   20.6139606843960        23.9439606843960        33.4082876521416     
   5.22518314167483        6.83085617392920        2.96085617392920     
 Mises_Load_Case01            1           8 double
   51.8194576590456        46.3436672641104        51.1788335679356     
   60.3663919268779        52.3128032855956        55.4257611935908     
   57.6389493640140        61.0631563051455     
