# vtk DataFile Version 3.0
 Bridge                                                                         
  
ASCII
DATASET UNSTRUCTURED_GRID
 POINTS        4087 double
   200.000000000000       -10.0000000000000       0.000000000000000E+000
   200.000000000000        10.0000000000000       0.000000000000000E+000
   150.000000000000        10.0000000000000       0.000000000000000E+000
   150.000000000000       -10.0000000000000       0.000000000000000E+000
   100.000000000000        10.0000000000000       0.000000000000000E+000
   100.000000000000       -10.0000000000000       0.000000000000000E+000
   50.0000000000000        10.0000000000000       0.000000000000000E+000
   50.0000000000000       -10.0000000000000       0.000000000000000E+000
  0.000000000000000E+000   10.0000000000000       0.000000000000000E+000
  0.000000000000000E+000  -10.0000000000000       0.000000000000000E+000
  -50.0000000000000        10.0000000000000       0.000000000000000E+000
  -50.0000000000000       -10.0000000000000       0.000000000000000E+000
  -100.000000000000        10.0000000000000       0.000000000000000E+000
  -100.000000000000       -10.0000000000000       0.000000000000000E+000
  -150.000000000000        10.0000000000000       0.000000000000000E+000
  -150.000000000000       -10.0000000000000       0.000000000000000E+000
  -200.000000000000        10.0000000000000       0.000000000000000E+000
  -200.000000000000       -10.0000000000000       0.000000000000000E+000
  -250.000000000000        10.0000000000000       0.000000000000000E+000
  -250.000000000000       -10.0000000000000       0.000000000000000E+000
   250.000000000000       -10.0000000000000       0.000000000000000E+000
   250.000000000000        10.0000000000000       0.000000000000000E+000
   200.000000000000       -5.00000000000000       0.000000000000000E+000
   200.000000000000       0.000000000000000E+000  0.000000000000000E+000
   200.000000000000        5.00000000000000       0.000000000000000E+000
   195.000000000000        10.0000000000000       0.000000000000000E+000
   190.000000000000        10.0000000000000       0.000000000000000E+000
   185.000000000000        10.0000000000000       0.000000000000000E+000
   180.000000000000        10.0000000000000       0.000000000000000E+000
   175.000000000000        10.0000000000000       0.000000000000000E+000
   170.000000000000        10.0000000000000       0.000000000000000E+000
   165.000000000000        10.0000000000000       0.000000000000000E+000
   160.000000000000        10.0000000000000       0.000000000000000E+000
   155.000000000000        10.0000000000000       0.000000000000000E+000
   150.000000000000        5.00000000000000       0.000000000000000E+000
   150.000000000000       0.000000000000000E+000  0.000000000000000E+000
   150.000000000000       -5.00000000000000       0.000000000000000E+000
   155.000000000000       -10.0000000000000       0.000000000000000E+000
   160.000000000000       -10.0000000000000       0.000000000000000E+000
   165.000000000000       -10.0000000000000       0.000000000000000E+000
   170.000000000000       -10.0000000000000       0.000000000000000E+000
   175.000000000000       -10.0000000000000       0.000000000000000E+000
   180.000000000000       -10.0000000000000       0.000000000000000E+000
   185.000000000000       -10.0000000000000       0.000000000000000E+000
   190.000000000000       -10.0000000000000       0.000000000000000E+000
   195.000000000000       -10.0000000000000       0.000000000000000E+000
   145.000000000000        10.0000000000000       0.000000000000000E+000
   140.000000000000        10.0000000000000       0.000000000000000E+000
   135.000000000000        10.0000000000000       0.000000000000000E+000
   130.000000000000        10.0000000000000       0.000000000000000E+000
   125.000000000000        10.0000000000000       0.000000000000000E+000
   120.000000000000        10.0000000000000       0.000000000000000E+000
   115.000000000000        10.0000000000000       0.000000000000000E+000
   110.000000000000        10.0000000000000       0.000000000000000E+000
   105.000000000000        10.0000000000000       0.000000000000000E+000
   100.000000000000        5.00000000000000       0.000000000000000E+000
   100.000000000000       0.000000000000000E+000  0.000000000000000E+000
   100.000000000000       -5.00000000000000       0.000000000000000E+000
   105.000000000000       -10.0000000000000       0.000000000000000E+000
   110.000000000000       -10.0000000000000       0.000000000000000E+000
   115.000000000000       -10.0000000000000       0.000000000000000E+000
   120.000000000000       -10.0000000000000       0.000000000000000E+000
   125.000000000000       -10.0000000000000       0.000000000000000E+000
   130.000000000000       -10.0000000000000       0.000000000000000E+000
   135.000000000000       -10.0000000000000       0.000000000000000E+000
   140.000000000000       -10.0000000000000       0.000000000000000E+000
   145.000000000000       -10.0000000000000       0.000000000000000E+000
   95.0000000000000        10.0000000000000       0.000000000000000E+000
   90.0000000000000        10.0000000000000       0.000000000000000E+000
   85.0000000000000        10.0000000000000       0.000000000000000E+000
   80.0000000000000        10.0000000000000       0.000000000000000E+000
   75.0000000000000        10.0000000000000       0.000000000000000E+000
   70.0000000000000        10.0000000000000       0.000000000000000E+000
   65.0000000000000        10.0000000000000       0.000000000000000E+000
   60.0000000000000        10.0000000000000       0.000000000000000E+000
   55.0000000000000        10.0000000000000       0.000000000000000E+000
   50.0000000000000        5.00000000000000       0.000000000000000E+000
   50.0000000000000       0.000000000000000E+000  0.000000000000000E+000
   50.0000000000000       -5.00000000000000       0.000000000000000E+000
   55.0000000000000       -10.0000000000000       0.000000000000000E+000
   60.0000000000000       -10.0000000000000       0.000000000000000E+000
   65.0000000000000       -10.0000000000000       0.000000000000000E+000
   70.0000000000000       -10.0000000000000       0.000000000000000E+000
   75.0000000000000       -10.0000000000000       0.000000000000000E+000
   80.0000000000000       -10.0000000000000       0.000000000000000E+000
   85.0000000000000       -10.0000000000000       0.000000000000000E+000
   90.0000000000000       -10.0000000000000       0.000000000000000E+000
   95.0000000000000       -10.0000000000000       0.000000000000000E+000
   45.0000000000000        10.0000000000000       0.000000000000000E+000
   40.0000000000000        10.0000000000000       0.000000000000000E+000
   35.0000000000000        10.0000000000000       0.000000000000000E+000
   30.0000000000000        10.0000000000000       0.000000000000000E+000
   25.0000000000000        10.0000000000000       0.000000000000000E+000
   20.0000000000000        10.0000000000000       0.000000000000000E+000
   15.0000000000000        10.0000000000000       0.000000000000000E+000
   10.0000000000000        10.0000000000000       0.000000000000000E+000
   5.00000000000000        10.0000000000000       0.000000000000000E+000
  0.000000000000000E+000   5.00000000000000       0.000000000000000E+000
  0.000000000000000E+000  0.000000000000000E+000  0.000000000000000E+000
  0.000000000000000E+000  -5.00000000000000       0.000000000000000E+000
   5.00000000000000       -10.0000000000000       0.000000000000000E+000
   10.0000000000000       -10.0000000000000       0.000000000000000E+000
   15.0000000000000       -10.0000000000000       0.000000000000000E+000
   20.0000000000000       -10.0000000000000       0.000000000000000E+000
   25.0000000000000       -10.0000000000000       0.000000000000000E+000
   30.0000000000000       -10.0000000000000       0.000000000000000E+000
   35.0000000000000       -10.0000000000000       0.000000000000000E+000
   40.0000000000000       -10.0000000000000       0.000000000000000E+000
   45.0000000000000       -10.0000000000000       0.000000000000000E+000
  -5.00000000000000        10.0000000000000       0.000000000000000E+000
  -10.0000000000000        10.0000000000000       0.000000000000000E+000
  -15.0000000000000        10.0000000000000       0.000000000000000E+000
  -20.0000000000000        10.0000000000000       0.000000000000000E+000
  -25.0000000000000        10.0000000000000       0.000000000000000E+000
  -30.0000000000000        10.0000000000000       0.000000000000000E+000
  -35.0000000000000        10.0000000000000       0.000000000000000E+000
  -40.0000000000000        10.0000000000000       0.000000000000000E+000
  -45.0000000000000        10.0000000000000       0.000000000000000E+000
  -50.0000000000000        5.00000000000000       0.000000000000000E+000
  -50.0000000000000       0.000000000000000E+000  0.000000000000000E+000
  -50.0000000000000       -5.00000000000000       0.000000000000000E+000
  -45.0000000000000       -10.0000000000000       0.000000000000000E+000
  -40.0000000000000       -10.0000000000000       0.000000000000000E+000
  -35.0000000000000       -10.0000000000000       0.000000000000000E+000
  -30.0000000000000       -10.0000000000000       0.000000000000000E+000
  -25.0000000000000       -10.0000000000000       0.000000000000000E+000
  -20.0000000000000       -10.0000000000000       0.000000000000000E+000
  -15.0000000000000       -10.0000000000000       0.000000000000000E+000
  -10.0000000000000       -10.0000000000000       0.000000000000000E+000
  -5.00000000000000       -10.0000000000000       0.000000000000000E+000
  -55.0000000000000        10.0000000000000       0.000000000000000E+000
  -60.0000000000000        10.0000000000000       0.000000000000000E+000
  -65.0000000000000        10.0000000000000       0.000000000000000E+000
  -70.0000000000000        10.0000000000000       0.000000000000000E+000
[...]
 CELL_DATA        2884
 POINT_DATA        4087
 FIELD Result            2
 Displacement_Load_Case01            3        4087 double
 -6.573186353764093E-003  7.268962098255987E-005 -8.298598112352897E-002
 -6.572761037155059E-003 -7.085243571374756E-005 -8.298573826712380E-002
 -2.925322703397307E-003  1.335380912787982E-004 -0.113299736470982     
 -2.925329120542503E-003 -1.299943990414637E-004 -0.113302068640929     
 -2.840692509728342E-004  8.882190290113002E-005 -0.103767442360687     
 -2.825718283466621E-004 -8.840123590677123E-005 -0.103770009956432     
 -2.221526710993405E-004  8.151235688485586E-006 -6.538647191836279E-002
 -2.174138183012740E-004 -2.275222615874284E-005 -6.539185885255894E-002
  1.111628764027552E-004 -5.193507547670492E-005 -1.327075673653974E-002
  1.201015167839194E-004  3.521220606569580E-006 -1.327147504415464E-002
  4.618486312433520E-004 -3.826709725256368E-005 -6.546654226936996E-002
  4.754577070639892E-004 -7.080260568759656E-005 -6.546890062401561E-002
  5.331242764786345E-004  2.899337425875570E-006 -0.103963509280554     
  5.443790072218598E-004 -1.785533208323756E-004 -0.103965633392853     
  3.240608016007042E-003  2.257392102241273E-005 -0.113852616961962     
  3.247491667640599E-003 -2.480070874785487E-004 -0.113854513353457     
  6.939103029630366E-003 -1.832973358996821E-004 -8.390495941611634E-002
  6.934658428001525E-003 -5.266113963966737E-005 -8.393221090791768E-002
  9.861870000801647E-004 -1.983082355900448E-004 -1.825971936918770E-003
  9.703144849755892E-004  8.311837766472548E-006 -1.857177170082923E-003
 -4.469774233055967E-004  5.174004583315083E-005 -7.975294296896834E-004
 -4.469485004662291E-004 -5.170273853524315E-005 -7.975285187217430E-004
 -4.724039298644609E-003  3.734454436506681E-005 -9.057993199508758E-002
 -4.574063128399052E-003  9.186071307832277E-007 -9.336243169877631E-002
 -4.723821464154461E-003 -3.550735156640196E-005 -9.057980273088241E-002
 -5.307346220749771E-003 -2.044756703995078E-004 -8.976564793208015E-002
 -4.793019173025630E-003 -3.647050093613674E-005 -0.100610162985618     
 -4.521210427827640E-003  8.448725476740995E-005 -0.110799980009322     
 -4.302475623836616E-003  1.316163277787857E-004 -0.118892166975667     
 -4.083193605969660E-003  1.429941614674457E-004 -0.124212985565341     
 -3.856714528678636E-003  1.433813096978424E-004 -0.126423524740337     
 -3.626251784715394E-003  1.420085325479511E-004 -0.125516284751813     
 -3.394431389354104E-003  1.405851458514324E-004 -0.121844661358956     
 -3.161642116149675E-003  1.388532029239746E-004 -0.116484575432645     
 -2.931759191153478E-003  6.860784253468488E-005 -0.120209555125737     
 -2.932257074103690E-003  1.786764863989432E-006 -0.122662429226133     
 -2.931756199771243E-003 -6.504174477877284E-005 -0.120210747090401     
 -3.161739109811457E-003 -1.353516690781828E-004 -0.116486751645262     
 -3.394608323718797E-003 -1.371691505703604E-004 -0.121846633367390     
 -3.626497975003623E-003 -1.387153451663384E-004 -0.125518018972645     
 -3.857019310963157E-003 -1.402428939478320E-004 -0.126425007567226     
 -4.083546327597464E-003 -1.400371463012862E-004 -0.124214212958036     
 -4.302865635070513E-003 -1.288620196098270E-004 -0.118893143401122     
 -4.521627090603070E-003 -8.195163199074813E-005 -0.110800719989439     
 -4.793451841158721E-003  3.877656935178613E-005 -0.100610692209526     
 -5.307783246063361E-003  2.065464134765690E-004 -8.976600255148710E-002
 -2.698786615305643E-003  1.397448130345603E-004 -0.119543208019517     
 -2.470573157207516E-003  1.401107139181308E-004 -0.128228516759472     
 -2.241451313708135E-003  1.401103653044702E-004 -0.135141441669186     
 -2.012295003512164E-003  1.401726335509697E-004 -0.139068783677142     
 -1.784114742847227E-003  1.398672968565612E-004 -0.139551927151957     
 -1.557817875611107E-003  1.366653301002412E-004 -0.136496784304215     
 -1.331579965296068E-003  1.240106720969400E-004 -0.130150883781330     
 -1.091106839638559E-003  9.208309243174003E-005 -0.121128607273826     
 -7.863999016947920E-004  4.828179548136712E-005 -0.110826828307075     
 -7.724336786533667E-004  4.347591907078723E-005 -0.110607497493640     
 -8.116548409431432E-004  2.456777619602384E-007 -0.113117067468996     
 -7.716515728870082E-004 -4.300225831762644E-005 -0.110608834140431     
 -7.850902832867730E-004 -4.717488257573949E-005 -0.110829321030878     
 -1.089986601775073E-003 -9.038470273732008E-005 -0.121131060318272     
 -1.330640162178447E-003 -1.218148646756553E-004 -0.130153323905857     
 -1.557047187900855E-003 -1.340599798965822E-004 -0.136499236830211     
 -1.783501836580273E-003 -1.369341104667976E-004 -0.139554403937655     
 -2.011828572429058E-003 -1.369876728810654E-004 -0.139071284626496     
 -2.241120059080675E-003 -1.367440381480789E-004 -0.135143956421890     
 -2.470365791430140E-003 -1.366277924730852E-004 -0.128231023292556     
 -2.698691852156774E-003 -1.362044033821554E-004 -0.119545662254835     
 -5.174726584132812E-004  1.165112149533605E-004 -0.106717334566731     
 -5.511811581737523E-004  7.052560338411698E-005 -0.112156721902781     
 -5.209815549022095E-004  3.770717478923008E-005 -0.116142857477852     
 -4.770605411532206E-004  2.470677278854839E-005 -0.117395073741333     
 -4.334708215167730E-004  2.110568259475378E-005 -0.115342656509202     
 -3.919364434410939E-004  2.023985211691641E-005 -0.109776806069541     
 -3.516204513467575E-004  1.942378346149929E-005 -0.100840832602875     
 -3.115500764811674E-004  1.754558863630973E-005 -8.905437291308818E-002
 -2.699993983452122E-004  1.443696674518103E-005 -7.572805939702791E-002
 -2.340398999009013E-004  1.485886302136591E-006 -7.228541695245043E-002
 -2.339182557716948E-004 -7.244773399395305E-006 -7.473601019807902E-002
 -2.316619808936568E-004 -1.600335269448063E-005 -7.228806739187982E-002
 -2.656301350068902E-004 -2.677938808556338E-005 -7.573344398721081E-002
 -3.075407781720481E-004 -2.781032141459494E-005 -8.905959584122210E-002
 -3.479606337687632E-004 -2.778839734700001E-005 -0.100845796193856     
 -3.886153624316501E-004 -2.687644227895789E-005 -0.109781436666214     
 -4.304777084037535E-004 -2.618093189590200E-005 -0.115346910713110     
 -4.743846227266285E-004 -2.838197312720689E-005 -0.117398934472326     
 -5.186120312668736E-004 -4.013824630030045E-005 -0.116146331885390     
 -5.491072253872292E-004 -7.186254894001185E-005 -0.112159841032439     
 -5.156858676280243E-004 -1.168981510294231E-004 -0.106720139798112     
 -1.939515869690863E-004  1.393448639971243E-005 -6.468197160089115E-002
 -1.614216918240965E-004  1.237189429011371E-005 -6.607525901969011E-002
 -1.270143484915079E-004  1.038359991524310E-005 -6.603827389804254E-002
 -9.197936972907241E-005  8.547337641776154E-006 -6.360165239264222E-002
 -5.686409488978868E-005  6.949765018653521E-006 -5.848442327735320E-002
 -2.200178928337605E-005  5.507934559234686E-006 -5.077905104375319E-002
  1.202938135538791E-005  3.916501215554029E-006 -4.095747624127410E-002
  4.428566473331464E-005  2.384084140817561E-007 -2.987891225361076E-002
  7.503557865925578E-005 -8.043379541527724E-006 -1.916714820267619E-002
  1.166908329212133E-004 -3.112769497249346E-005 -1.981596773241739E-002
  1.192626865618851E-004 -2.417838475084035E-005 -2.237746345126183E-002
  1.212901387324122E-004 -1.724667058271491E-005 -1.981513843079712E-002
  8.358084551162615E-005 -3.608628356607854E-005 -1.916822029151739E-002
  5.238511598553448E-005 -4.020798741006811E-005 -2.988052548223996E-002
  1.967699394115840E-005 -3.996186297829711E-005 -4.095985977567842E-002
 -1.479782515794778E-005 -3.785516828387193E-005 -5.078208133719312E-002
 -5.009418733998671E-005 -3.581857585954782E-005 -5.848800288092899E-002
 -8.563409495097152E-005 -3.415235211482257E-005 -6.360572298610195E-002
 -1.210843181309149E-004 -3.293479159020278E-005 -6.604277790591767E-002
 -1.558974981858859E-004 -3.207447546396989E-005 -6.608013004462636E-002
 -1.888240338338341E-004 -3.098896815133349E-005 -6.468713906564592E-002
  1.521141717216035E-004 -1.310928399672531E-005 -1.915907858100665E-002
  1.850580513656643E-004 -8.892402986509397E-006 -2.987462657886968E-002
  2.186702424791773E-004 -9.497814159248602E-006 -4.096023641090253E-002
  2.538949140763202E-004 -1.249298526331921E-005 -5.079068440761943E-002
  2.899833013899270E-004 -1.578960255313045E-005 -5.850646648455193E-002
  3.263820348562816E-004 -1.897576999596495E-005 -6.363539064667253E-002
  3.627453160374170E-004 -2.191573995193758E-005 -6.608452613205838E-002
  3.985075940635774E-004 -2.466760250538379E-005 -6.613425630295307E-002
  4.323855759074631E-004 -2.779845482704869E-005 -6.475309574247078E-002
  4.786256351231017E-004 -4.536982153686248E-005 -7.236362567317992E-002
  4.831033405002443E-004 -5.451806809566017E-005 -7.481304933466378E-002
  4.853986317778690E-004 -6.367478739615482E-005 -7.236473270420704E-002
  4.458517313249347E-004 -7.439329797185806E-005 -6.475537170178133E-002
  4.117578681353940E-004 -7.073401846806469E-005 -6.613613988509510E-002
  3.757098790324987E-004 -6.682172608112138E-005 -6.608587158337854E-002
  3.389918497498551E-004 -6.325779967586488E-005 -6.363610512062254E-002
  3.021693596383712E-004 -6.013471565348822E-005 -5.850653430050255E-002
  2.655882426490366E-004 -5.735118094773926E-005 -5.079017168448891E-002
  2.298019963785749E-004 -5.453027411469699E-005 -4.095927109349808E-002
  1.955607304576432E-004 -4.961415205316292E-005 -2.987341665591385E-002
  1.619087701744802E-004 -4.020422765537576E-005 -1.915828408747029E-002
  5.114054247969855E-004 -3.660584177127772E-005 -7.581494831572094E-002
  5.545807060869200E-004 -3.799948002572896E-005 -8.914932156020955E-002
  5.962696585549294E-004 -4.054263406878160E-005 -0.100944167830219     
  6.382342192528297E-004 -4.405636851829218E-005 -0.109888996158425     
  6.814715277933845E-004 -4.739541946486058E-005 -0.115464543213078     
  7.268382940718358E-004 -4.780018033710188E-005 -0.117527954849903     
  7.725706418669213E-004 -3.844373716348353E-005 -0.116288492897267     
  8.042995263684312E-004 -8.668969681654894E-006 -0.112317259151059     
  7.707312562864983E-004  3.472910902414723E-005 -0.106895057239146     
  1.035476258702526E-003 -4.356808805700609E-005 -0.110804618610144     
  1.078873808053013E-003 -8.787738667464979E-005 -0.113314487485805     
  1.041279288032334E-003 -1.321614864240764E-004 -0.110805710585453     
  7.826488544862499E-004 -2.044514229993809E-004 -0.106897161279374     
  8.167055840442433E-004 -1.548426586242180E-004 -0.112319352449305     
  7.853755552233742E-004 -1.186480650927788E-004 -0.116290565754857     
  7.399713757947763E-004 -1.026939640895330E-004 -0.117530013458920     
  6.948621316221875E-004 -9.635448340079276E-005 -0.115466596685870     
  6.518114813246501E-004 -9.283822933123221E-005 -0.109891055577747     
  6.099626625632124E-004 -8.942105972725585E-005 -0.100946248052858     
  5.683185692245411E-004 -8.499299217830913E-005 -8.915143851376768E-002
  5.251165380635291E-004 -7.941044082343518E-005 -7.581713160510173E-002
  1.047287854910207E-003 -4.163378968147731E-005 -0.111046116431308     
  1.359483136687142E-003  1.164000685067853E-008 -0.121377469778884     
  1.606055506608578E-003  2.961381370365834E-005 -0.130432930729521     
  1.838111179442031E-003  3.962935595195246E-005 -0.136814760079911     
  2.070262006999568E-003  4.011800816021143E-005 -0.139907960780876     
  2.304373857696523E-003  3.780345812434177E-005 -0.139464416582115     
  2.539516092125589E-003  3.530163871962295E-005 -0.135577675145169     
  2.774625736887194E-003  3.309575018638127E-005 -0.128705774930250     
  3.008694035953262E-003  3.075328135109863E-005 -0.120060829638479     
  3.250030648842663E-003 -4.421587826780502E-005 -0.120761891009644     
  3.252340805143647E-003 -1.128328541471980E-004 -0.123214629822185     
  3.253447268104834E-003 -1.813916001198727E-004 -0.120762962649854     
  3.016355237359012E-003 -2.524326713238697E-004 -0.120062125012494     
  2.782986222468723E-003 -2.506553637503527E-004 -0.128706745439955     
  2.548503759098273E-003 -2.484106537756200E-004 -0.135578561581179     
  2.313917868109285E-003 -2.461662754180462E-004 -0.139465393320816     
  2.080291485077043E-003 -2.434741676876685E-004 -0.139909133248722     
  1.848555295595631E-003 -2.377538492796594E-004 -0.136816183364025     
  1.616843647104830E-003 -2.223171355645476E-004 -0.130434618838805     
  1.370544645667967E-003 -1.871355183811524E-004 -0.121379398820640     
  1.058533158920868E-003 -1.397836635643239E-004 -0.111048216621256     
  3.484200191374437E-003  2.615014188464585E-005 -0.117072096845678     
  3.723782629174073E-003  2.656857216433744E-005 -0.122471700941731     
  3.962264692223390E-003  2.688520065825567E-005 -0.126183667003514     
  4.199400428466805E-003  2.735440775492961E-005 -0.127131111267799     
  4.432634831551678E-003  2.633467368512814E-005 -0.124960189800035     
  4.658799817865414E-003  1.474694658783323E-005 -0.119677977317004     
  4.884457551191723E-003 -3.182927477172924E-005 -0.111622871622389     
  5.162538657825288E-003 -1.509660909031947E-004 -0.101468080508932     
  5.680062124824970E-003 -3.162121076790565E-004 -9.065602779314011E-002
  5.112600065864150E-003 -1.513110943169088E-004 -9.150442265502576E-002
  4.963677416921847E-003 -1.181523579366249E-004 -9.429360904608691E-002
  5.110635243093197E-003 -8.490726709133418E-005 -9.151849872412700E-002
  5.677208500658624E-003  7.856805208287763E-005 -9.068183224129421E-002
  5.161065227564929E-003 -8.762718279835525E-005 -0.101491576280499     
  4.884269731930332E-003 -2.070644330581912E-004 -0.111643532395807     
  4.659829187275786E-003 -2.533207701358271E-004 -0.119695569367198     
  4.434813109942836E-003 -2.639968905548912E-004 -0.124974613013081     
  4.202659035593106E-003 -2.635476834325282E-004 -0.127142386780217     
  3.966534979943712E-003 -2.610865126470254E-004 -0.126191953590225     
  3.728995909446427E-003 -2.582889961590869E-004 -0.122477307795265     
  3.490286434588799E-003 -2.549347340817332E-004 -0.117075470843892     
  5.450068202696307E-003 -5.663040995040323E-005 -8.862867709278112E-002
  4.703588345701806E-003 -2.220444527554495E-004 -9.634617763497415E-002
  4.196329066541369E-003 -3.400980138158632E-004 -0.102163572861675     
  3.741152542943587E-003 -3.848652846184870E-004 -0.104139228113022     
  3.285414743581511E-003 -3.945585806303424E-004 -0.101045477468375     
  2.823495798222541E-003 -3.940145119522218E-004 -9.203690959956368E-002
  2.361186323535469E-003 -3.915222945183520E-004 -7.681249058610994E-002
  1.905905900168218E-003 -3.816645477455533E-004 -5.578325603883140E-002
  1.459140240339311E-003 -3.458008101493425E-004 -3.013253769053038E-002
  9.595283258875151E-004 -1.375592125166201E-004 -1.889842172958794E-003
  9.535960956290228E-004 -9.511354895371200E-005 -1.905833030650116E-003
  9.515831808777625E-004 -5.261939854274840E-005 -1.905532462797604E-003
  1.444767504445699E-003  1.485028562523986E-004 -3.016371746547272E-002
  1.892944630572217E-003  1.776472038987319E-004 -5.581434794125448E-002
  2.349568940689296E-003  1.814774600732511E-004 -7.684346715288633E-002
  2.813150982251088E-003  1.785960741566610E-004 -9.206774412160774E-002
  3.276268955768905E-003  1.743850019477279E-004 -0.101076119698188     
  3.733132341006166E-003  1.605176527344730E-004 -0.104169600980487     
  4.189361311725294E-003  1.121205963660692E-004 -0.102193575472638     
  4.697599934997404E-003 -9.049368027299847E-006 -9.637566114794012E-002
  5.444960039457488E-003 -1.770975983773658E-004 -8.865727373321092E-002
 -5.055193161702221E-003 -5.467224989722005E-005 -8.768551485166888E-002
 -4.289295761366958E-003  1.141014852340031E-004 -9.538199048553929E-002
 -3.765666566226737E-003  2.351639359600977E-004 -0.101181251351446     
 -3.294745987153655E-003  2.823076322882101E-004 -0.103141428452475     
 -2.823269152762371E-003  2.943380732003324E-004 -0.100034412335193     
 -2.345818017266859E-003  2.964680099010931E-004 -9.101429094411165E-002
 -1.868961806240339E-003  2.967022348771879E-004 -7.578004174160868E-002
 -1.401213048471479E-003  2.870636861281761E-004 -5.474396346374047E-002
 -9.429334337037136E-004  2.447003800757313E-004 -2.909295509755536E-002
 -4.284532373283710E-004  2.029007889989304E-005 -8.208518076399787E-004
 -4.270871789182804E-004  1.531863550300117E-008 -8.231731154633085E-004
 -4.284396082092121E-004 -2.025807886234646E-005 -8.208491594358276E-004
 -9.428129126790321E-004 -2.445944065919556E-004 -2.909294222503089E-002
 -1.401014334518207E-003 -2.868605337492321E-004 -5.474393950153700E-002
 -1.868695578856531E-003 -2.963652597462974E-004 -7.578000588503925E-002
 -2.345495055289584E-003 -2.959662309533074E-004 -9.101424137163892E-002
 -2.822900444053715E-003 -2.936458123954215E-004 -0.100034346475518     
 -3.294342516719877E-003 -2.814047675862603E-004 -0.103141342633679     
 -3.765239308333413E-003 -2.340358393889664E-004 -0.101181140231226     
 -4.288855685775908E-003 -1.127387972173431E-004 -9.538184572184367E-002
 -5.054752228640750E-003  5.627360435696543E-005 -8.768532494201987E-002
 -4.934534856707424E-003  2.438786673719278E-004 -9.420344970425623E-002
 -4.656281365486073E-003  1.036703693733883E-006 -9.617278247092820E-002
 -4.934320786807965E-003 -2.418071331175859E-004 -9.420326747622659E-002
 -4.780123588495802E-003  7.808406171583635E-005 -0.101838392262432     
 -4.706989160664300E-003  1.154789660667148E-006 -0.102408240473535     
 -4.779913393944823E-003 -7.577538341293736E-005 -0.101838128379470     
 -4.560759380514184E-003 -2.568319881717576E-005 -0.110705167984264     
 -4.558467065110877E-003  1.271000806299439E-006 -0.110654408735151     
 -4.560557207550628E-003  2.822360020964535E-005 -0.110704798402983     
 -4.326930633926698E-003 -6.307719231000506E-005 -0.118519765297975     
 -4.335441340018434E-003  1.381944262837383E-006 -0.118368784479711     
 -4.326741758534810E-003  6.583869051590353E-005 -0.118519277062875     
 -4.092179297208739E-003 -7.082589793297983E-005 -0.123841794227824     
 -4.097319122600786E-003  1.484899141093589E-006 -0.123695748581373     
 -4.092009061731300E-003  7.379250015432697E-005 -0.123841180479499     
 -3.858678457576028E-003 -7.032962488669446E-005 -0.126047654347988     
 -3.860421086906351E-003  1.577197848945356E-006 -0.125897861620575     
 -3.858532191973438E-003  7.348002602588539E-005 -0.126046912772294     
 -3.626000234199516E-003 -6.888051141822268E-005 -0.125358058696993     
 -3.626207600172891E-003  1.656179979870429E-006 -0.125284061733456     
 -3.625883264505292E-003  7.218807685852404E-005 -0.125357192048679     
 -3.393661124292253E-003 -6.764794078700728E-005 -0.122807014425013     
 -3.393554040275837E-003  1.719172806479408E-006 -0.123257798652618     
 -3.393578766176745E-003  7.108071773889618E-005 -0.122806030368057     
 -3.161496875253684E-003 -6.568352760737923E-005 -0.120258297191480     
 -3.162497540466557E-003  1.763543439780128E-006 -0.121971371601544     
 -3.161454417981378E-003  6.920417461831282E-005 -0.120257202314290     
 -2.701410980943145E-003 -6.707747964167122E-005 -0.123491461215216     
 -2.702307927933035E-003  1.786263082377209E-006 -0.125256130403286     
 -2.701464913132137E-003  7.064190087155302E-005 -0.123490229897306     
 -2.471190806237771E-003 -6.770325061584445E-005 -0.129269036363714     
 -2.471805548714315E-003  1.759187333001183E-006 -0.129762484233968     
 -2.471301002799178E-003  7.121278063739003E-005 -0.129267784980175     
 -2.241296586815269E-003 -6.770787961394267E-005 -0.134994998658682     
 -2.241423845492487E-003  1.702590974895468E-006 -0.134926262404463     
 -2.241468711643125E-003  7.110334633723644E-005 -0.134993741537563     
 -2.011394365662716E-003 -6.796727141465672E-005 -0.138676403662030     