# vtk DataFile Version 3.0
 Bridge                                                                         
  
ASCII
DATASET UNSTRUCTURED_GRID
 POINTS        4085 double
   200.000000000000       -10.0000000000000       0.000000000000000E+000
   200.000000000000        10.0000000000000       0.000000000000000E+000
   150.000000000000        10.0000000000000       0.000000000000000E+000
   150.000000000000       -10.0000000000000       0.000000000000000E+000
   100.000000000000        10.0000000000000       0.000000000000000E+000
   100.000000000000       -10.0000000000000       0.000000000000000E+000
   50.0000000000000        10.0000000000000       0.000000000000000E+000
   50.0000000000000       -10.0000000000000       0.000000000000000E+000
  0.000000000000000E+000   10.0000000000000       0.000000000000000E+000
  0.000000000000000E+000  -10.0000000000000       0.000000000000000E+000
  -50.0000000000000        10.0000000000000       0.000000000000000E+000
  -50.0000000000000       -10.0000000000000       0.000000000000000E+000
  -100.000000000000        10.0000000000000       0.000000000000000E+000
  -100.000000000000       -10.0000000000000       0.000000000000000E+000
  -150.000000000000        10.0000000000000       0.000000000000000E+000
  -150.000000000000       -10.0000000000000       0.000000000000000E+000
  -200.000000000000        10.0000000000000       0.000000000000000E+000
  -200.000000000000       -10.0000000000000       0.000000000000000E+000
  -250.000000000000        10.0000000000000       0.000000000000000E+000
  -250.000000000000       -10.0000000000000       0.000000000000000E+000
   250.000000000000       -10.0000000000000       0.000000000000000E+000
   250.000000000000        10.0000000000000       0.000000000000000E+000
   200.000000000000       -5.00000000000000       0.000000000000000E+000
   200.000000000000       0.000000000000000E+000  0.000000000000000E+000
   200.000000000000        5.00000000000000       0.000000000000000E+000
   195.000000000000        10.0000000000000       0.000000000000000E+000
   190.000000000000        10.0000000000000       0.000000000000000E+000
   185.000000000000        10.0000000000000       0.000000000000000E+000
   180.000000000000        10.0000000000000       0.000000000000000E+000
   175.000000000000        10.0000000000000       0.000000000000000E+000
   170.000000000000        10.0000000000000       0.000000000000000E+000
   165.000000000000        10.0000000000000       0.000000000000000E+000
   160.000000000000        10.0000000000000       0.000000000000000E+000
   155.000000000000        10.0000000000000       0.000000000000000E+000
   150.000000000000        5.00000000000000       0.000000000000000E+000
   150.000000000000       0.000000000000000E+000  0.000000000000000E+000
   150.000000000000       -5.00000000000000       0.000000000000000E+000
   155.000000000000       -10.0000000000000       0.000000000000000E+000
   160.000000000000       -10.0000000000000       0.000000000000000E+000
   165.000000000000       -10.0000000000000       0.000000000000000E+000
   170.000000000000       -10.0000000000000       0.000000000000000E+000
   175.000000000000       -10.0000000000000       0.000000000000000E+000
   180.000000000000       -10.0000000000000       0.000000000000000E+000
   185.000000000000       -10.0000000000000       0.000000000000000E+000
   190.000000000000       -10.0000000000000       0.000000000000000E+000
   195.000000000000       -10.0000000000000       0.000000000000000E+000
   145.000000000000        10.0000000000000       0.000000000000000E+000
   140.000000000000        10.0000000000000       0.000000000000000E+000
   135.000000000000        10.0000000000000       0.000000000000000E+000
   130.000000000000        10.0000000000000       0.000000000000000E+000
   125.000000000000        10.0000000000000       0.000000000000000E+000
   120.000000000000        10.0000000000000       0.000000000000000E+000
   115.000000000000        10.0000000000000       0.000000000000000E+000
   110.000000000000        10.0000000000000       0.000000000000000E+000
   105.000000000000        10.0000000000000       0.000000000000000E+000
   100.000000000000        5.00000000000000       0.000000000000000E+000
   100.000000000000       0.000000000000000E+000  0.000000000000000E+000
   100.000000000000       -5.00000000000000       0.000000000000000E+000
   105.000000000000       -10.0000000000000       0.000000000000000E+000
   110.000000000000       -10.0000000000000       0.000000000000000E+000
   115.000000000000       -10.0000000000000       0.000000000000000E+000
   120.000000000000       -10.0000000000000       0.000000000000000E+000
   125.000000000000       -10.0000000000000       0.000000000000000E+000
   130.000000000000       -10.0000000000000       0.000000000000000E+000
   135.000000000000       -10.0000000000000       0.000000000000000E+000
   140.000000000000       -10.0000000000000       0.000000000000000E+000
   145.000000000000       -10.0000000000000       0.000000000000000E+000
   95.0000000000000        10.0000000000000       0.000000000000000E+000
   90.0000000000000        10.0000000000000       0.000000000000000E+000
   85.0000000000000        10.0000000000000       0.000000000000000E+000
   80.0000000000000        10.0000000000000       0.000000000000000E+000
   75.0000000000000        10.0000000000000       0.000000000000000E+000
   70.0000000000000        10.0000000000000       0.000000000000000E+000
   65.0000000000000        10.0000000000000       0.000000000000000E+000
   60.0000000000000        10.0000000000000       0.000000000000000E+000
   55.0000000000000        10.0000000000000       0.000000000000000E+000
   50.0000000000000        5.00000000000000       0.000000000000000E+000
   50.0000000000000       0.000000000000000E+000  0.000000000000000E+000
   50.0000000000000       -5.00000000000000       0.000000000000000E+000
   55.0000000000000       -10.0000000000000       0.000000000000000E+000
   60.0000000000000       -10.0000000000000       0.000000000000000E+000
   65.0000000000000       -10.0000000000000       0.000000000000000E+000
   70.0000000000000       -10.0000000000000       0.000000000000000E+000
   75.0000000000000       -10.0000000000000       0.000000000000000E+000
   80.0000000000000       -10.0000000000000       0.000000000000000E+000
   85.0000000000000       -10.0000000000000       0.000000000000000E+000
   90.0000000000000       -10.0000000000000       0.000000000000000E+000
   95.0000000000000       -10.0000000000000       0.000000000000000E+000
   45.0000000000000        10.0000000000000       0.000000000000000E+000
   40.0000000000000        10.0000000000000       0.000000000000000E+000
   35.0000000000000        10.0000000000000       0.000000000000000E+000
   30.0000000000000        10.0000000000000       0.000000000000000E+000
   25.0000000000000        10.0000000000000       0.000000000000000E+000
   20.0000000000000        10.0000000000000       0.000000000000000E+000
   15.0000000000000        10.0000000000000       0.000000000000000E+000
   10.0000000000000        10.0000000000000       0.000000000000000E+000
   5.00000000000000        10.0000000000000       0.000000000000000E+000
  0.000000000000000E+000   5.00000000000000       0.000000000000000E+000
  0.000000000000000E+000  0.000000000000000E+000  0.000000000000000E+000
  0.000000000000000E+000  -5.00000000000000       0.000000000000000E+000
   5.00000000000000       -10.0000000000000       0.000000000000000E+000
   10.0000000000000       -10.0000000000000       0.000000000000000E+000
   15.0000000000000       -10.0000000000000       0.000000000000000E+000
   20.0000000000000       -10.0000000000000       0.000000000000000E+000
   25.0000000000000       -10.0000000000000       0.000000000000000E+000
   30.0000000000000       -10.0000000000000       0.000000000000000E+000
   35.0000000000000       -10.0000000000000       0.000000000000000E+000
   40.0000000000000       -10.0000000000000       0.000000000000000E+000
   45.0000000000000       -10.0000000000000       0.000000000000000E+000
  -5.00000000000000        10.0000000000000       0.000000000000000E+000
  -10.0000000000000        10.0000000000000       0.000000000000000E+000
  -15.0000000000000        10.0000000000000       0.000000000000000E+000
  -20.0000000000000        10.0000000000000       0.000000000000000E+000
  -25.0000000000000        10.0000000000000       0.000000000000000E+000
  -30.0000000000000        10.0000000000000       0.000000000000000E+000
  -35.0000000000000        10.0000000000000       0.000000000000000E+000
  -40.0000000000000        10.0000000000000       0.000000000000000E+000
  -45.0000000000000        10.0000000000000       0.000000000000000E+000
  -50.0000000000000        5.00000000000000       0.000000000000000E+000
  -50.0000000000000       0.000000000000000E+000  0.000000000000000E+000
  -50.0000000000000       -5.00000000000000       0.000000000000000E+000
  -45.0000000000000       -10.0000000000000       0.000000000000000E+000
  -40.0000000000000       -10.0000000000000       0.000000000000000E+000
  -35.0000000000000       -10.0000000000000       0.000000000000000E+000
  -30.0000000000000       -10.0000000000000       0.000000000000000E+000
  -25.0000000000000       -10.0000000000000       0.000000000000000E+000
  -20.0000000000000       -10.0000000000000       0.000000000000000E+000
  -15.0000000000000       -10.0000000000000       0.000000000000000E+000
  -10.0000000000000       -10.0000000000000       0.000000000000000E+000
  -5.00000000000000       -10.0000000000000       0.000000000000000E+000
  -55.0000000000000        10.0000000000000       0.000000000000000E+000
  -60.0000000000000        10.0000000000000       0.000000000000000E+000
  -65.0000000000000        10.0000000000000       0.000000000000000E+000
  -70.0000000000000        10.0000000000000       0.000000000000000E+000
[...]
 CELL_DATA        2884
 POINT_DATA        4085
 FIELD Result            2
 Displacement_Load_Case01            3        4085 double
 -6.183530010639879E-003  7.015914936797904E-005 -7.502606666402639E-002
 -6.183224140943726E-003 -6.908311405969592E-005 -7.502599695580324E-002
 -2.722044048428162E-003  1.331353617081683E-004 -0.108813301439689     
 -2.722439964021313E-003 -1.300541830644246E-004 -0.108813430184243     
 -2.058757440614056E-004  7.663511493783877E-005 -0.100540035204510     
 -2.059611757183951E-004 -7.210715418320042E-005 -0.100540080016557     
 -2.475881348502880E-004  1.948940238939508E-005 -6.191076127848737E-002
 -2.470349666813895E-004 -1.588687942003565E-005 -6.191120149637674E-002
  1.294853395380080E-005 -1.287914957642381E-004 -6.597348176986004E-003
  1.413123224744379E-005  1.272995751061277E-004 -6.597132674284089E-003
  3.473529721385380E-004 -1.248118661387113E-006 -6.206638526196238E-002
  3.606185771244974E-004 -4.363644838711926E-005 -6.207178571615436E-002
  3.585334432881526E-004  1.844461716685886E-005 -0.100784185626244     
  3.730432832553500E-004 -1.391451560774529E-004 -0.100785524712983     
  2.969993193495844E-003  4.081055024183209E-005 -0.109405754760468     
  2.981632910166224E-003 -2.332625660312343E-004 -0.109404660152343     
  6.515593117980569E-003 -1.737321027490431E-004 -7.589554678462070E-002
  6.514040585331740E-003 -5.068459591853437E-005 -7.591474574404322E-002
  9.677568947477460E-004 -1.862601476636670E-004 -1.847844829412224E-003
  9.518329891602188E-004 -2.203811763601367E-006 -1.877358618412349E-003
 -4.402950227467871E-004  4.700509016622846E-005 -8.063263590390697E-004
 -4.402797860179487E-004 -4.698793408453184E-005 -8.063249444459305E-004
 -4.442849384520821E-003  3.535397022484908E-005 -7.798924574591581E-002
 -4.301691274944232E-003  5.351655734205893E-007 -7.972962130094512E-002
 -4.442689881635872E-003 -3.428221246271400E-005 -7.798920227432778E-002
 -4.989282472817384E-003 -1.918903671844209E-004 -8.179792595191505E-002
 -4.502865062082485E-003 -3.328556727345635E-005 -9.380245699316760E-002
 -4.244665370779932E-003  8.070728752481583E-005 -0.105233214740059     
 -4.036307428988455E-003  1.250528771688020E-004 -0.114156592853389     
 -3.827374781246256E-003  1.357286954499000E-004 -0.119759073174259     
 -3.611625524440708E-003  1.360457807273093E-004 -0.121785411349976     
 -3.392017701144034E-003  1.346906481662251E-004 -0.120482660019118     
 -3.170834885603535E-003  1.334673464313453E-004 -0.116595452493683     
 -2.948234601866761E-003  1.324902764672593E-004 -0.111635544044656     
 -2.730986265901419E-003  6.733018192395255E-005 -0.111953496564030     
 -2.731780927870654E-003  1.542277733872086E-006 -0.113798741369148     
 -2.731182671424123E-003 -6.424646978538603E-005 -0.111953576681706     
 -2.948640963732437E-003 -1.296162999947550E-004 -0.111635680630404     
 -3.171247201163920E-003 -1.308046632711323E-004 -0.116595588041860     
 -3.392431793904055E-003 -1.322411425494259E-004 -0.120482788148762     
 -3.612037289419372E-003 -1.338093004157248E-004 -0.121785531200809     
 -3.827780113911244E-003 -1.337030503080370E-004 -0.119759184322632     
 -4.036702226482331E-003 -1.232338246536747E-004 -0.114156695057100     
 -4.245045539091451E-003 -7.908852986845034E-005 -0.105233308499747     
 -4.503226505717987E-003  3.471220664920503E-005 -9.380254343964990E-002
 -4.989620316470115E-003  1.931349466753836E-004 -8.179800409796097E-002
 -2.509253701205688E-003  1.339096273753528E-004 -0.112745819111954     
 -2.292878596323399E-003  1.332862014923997E-004 -0.119782871155091     
 -2.075419304374802E-003  1.330115623953578E-004 -0.126034423209720     
 -1.858075952701118E-003  1.332179059063190E-004 -0.129880179531510     
 -1.641811037088665E-003  1.331706226625922E-004 -0.130561345162349     
 -1.427487913878933E-003  1.303025584416101E-004 -0.127844972652426     
 -1.213352428153081E-003  1.180752743324896E-004 -0.122023781877420     
 -9.853738363913979E-004  8.647314232966858E-005 -0.113924366319094     
 -6.939611142103408E-004  4.245331637440500E-005 -0.105295564134104     
 -6.897433544694694E-004  3.945387941058150E-005 -0.103699209527858     
 -7.289823248141537E-004  2.271125717947262E-006 -0.105555885666424     
 -6.897873874611278E-004 -3.491519874150485E-005 -0.103699238095116     
 -6.940980542555175E-004 -3.798792318611034E-005 -0.105295612464785     
 -9.855563932937665E-004 -8.209450033850768E-005 -0.113924420613920     
 -1.213576154633015E-003 -1.138048614455240E-004 -0.122023845483955     
 -1.427748687047537E-003 -1.261598618574320E-004 -0.127845048508159     
 -1.642104735551039E-003 -1.291731378626605E-004 -0.130561434697202     
 -1.858398451515139E-003 -1.293810645739676E-004 -0.129880283013111     
 -2.075766478383188E-003 -1.293487329589356E-004 -0.126034540249408     
 -2.293246320599503E-003 -1.298087051797727E-004 -0.119783000487625     
 -2.509637780013074E-003 -1.306267373855488E-004 -0.112745953582080     
 -4.461313296805619E-004  1.107922467366135E-004 -0.102724319491773     
 -4.897122371372374E-004  6.673405644910096E-005 -0.106608615033155     
 -4.698585337034803E-004  3.506979788925407E-005 -0.109445892301670     
 -4.361581416529125E-004  2.275587461469874E-005 -0.109813182931090     
 -4.026337690758245E-004  1.978229174958432E-005 -0.106998237469052     
 -3.710304928018115E-004  1.963779524436906E-005 -0.100793116437018     
 -3.405051188506145E-004  1.982697101906563E-005 -9.151866360376354E-002
 -3.102523862459218E-004  1.972346775421955E-005 -8.005610237069029E-002
 -2.796228107035002E-004  1.937688400973951E-005 -6.835457786880215E-002
 -2.508980504886613E-004  1.066004920183130E-005 -6.499620534738114E-002
 -2.510461454835173E-004  1.814307243877050E-006 -6.680956352663657E-002
 -2.506186617786296E-004 -7.037945469821438E-006 -6.499647841447878E-002
 -2.791523315581596E-004 -1.552475357602605E-005 -6.835504024001698E-002
 -3.098606110971056E-004 -1.566242535978159E-005 -8.005654604802706E-002
 -3.401878947582727E-004 -1.559533912257555E-005 -9.151905824054665E-002
 -3.707836434247223E-004 -1.527181282897817E-005 -0.100793454051820     
 -4.024531229840956E-004 -1.531610139805588E-005 -0.106998514305081     
 -4.360395287184357E-004 -1.822153523626179E-005 -0.109813398072003     
 -4.697977876568092E-004 -3.049728146403503E-005 -0.109446049033055     
 -4.897051917569736E-004 -6.215132226333061E-005 -0.106608721025497     
 -4.461734959039853E-004 -1.062252383208158E-004 -0.102724385304300     
 -2.207096880649163E-004  1.959613701401582E-005 -6.223523633746367E-002
 -1.924182161352836E-004  1.910745583176331E-005 -6.274085140204143E-002
 -1.636396209412356E-004  1.870859605591906E-005 -6.198965020551214E-002
 -1.347175608236011E-004  1.854343238287203E-005 -5.891617107846954E-002
 -1.058722708881295E-004  1.875224812711539E-005 -5.302967983834357E-002
 -7.771825232871416E-005  1.947503314084803E-005 -4.438153598467227E-002
 -5.196852577087046E-005  2.006991957871209E-005 -3.364226015115205E-002
 -3.161710062186349E-005  1.492976479627020E-005 -2.203675829421050E-002
 -1.638601121232075E-005 -3.511676981322829E-006 -1.162665843037742E-002
  2.792960326656539E-005 -4.407262801099839E-005 -1.020814620807573E-002
  2.977881018450392E-005 -7.035956820814514E-007 -1.233467272719279E-002
  2.919298287976749E-005  4.263961709853787E-005 -1.020801951282311E-002
 -1.494385476897081E-005  2.626422618213861E-006 -1.162640823097283E-002
 -3.023425294670828E-005 -1.505890007773990E-005 -2.203651981782132E-002
 -5.070479838873329E-005 -1.953258000908036E-005 -3.364209220982756E-002
 -7.657030785095892E-005 -1.834202461989881E-005 -4.438146663292167E-002
 -1.048347209215882E-004 -1.708013330590341E-005 -5.302972285464347E-002
 -1.337857566424225E-004 -1.638614112858714E-005 -5.891633136592571E-002
 -1.628091054960163E-004 -1.611784515718004E-005 -6.198992458875498E-002
 -1.916845396635898E-004 -1.613277438480256E-005 -6.274122763360304E-002
 -2.200684322046790E-004 -1.628481071034426E-005 -6.223567574136538E-002
  6.374739326932930E-005 -6.671869462519542E-006 -1.163591237380806E-002
  8.861615849201586E-005  1.301639292873716E-005 -2.206300078865435E-002
  1.147770498629453E-004  1.832063048665768E-005 -3.368716433789749E-002
  1.455257101415909E-004  1.638672362643220E-005 -4.444552161356145E-002
  1.787385528979694E-004  1.345462185837195E-005 -5.311268024615289E-002
  2.128114556836138E-004  1.059523391066907E-005 -5.901770467698199E-002
  2.470780792488563E-004  7.847227326047754E-006 -6.210874682536462E-002
  2.812709229396812E-004  5.132149795219574E-006 -6.287597004430356E-002
  3.150162557168010E-004  2.329280691032959E-006 -6.238388233338337E-002
  3.542596922941954E-004 -1.176649301367911E-005 -6.515232193090395E-002
  3.578485124442619E-004 -2.234383152359358E-005 -6.696695707361122E-002
  3.608414118074945E-004 -3.297034528411322E-005 -6.515567897408918E-002
  3.275948655885273E-004 -4.058277092152688E-005 -6.238946877589079E-002
  2.930532740339464E-004 -3.712713593566406E-005 -6.288120629449440E-002
  2.579585587639030E-004 -3.400872020969645E-005 -6.211327641380743E-002
  2.226852057069138E-004 -3.140054488440876E-005 -5.902143484771730E-002
  1.875006830670762E-004 -2.943338188075445E-005 -5.311556793346316E-002
  1.530715231449783E-004 -2.812092995295781E-005 -4.444756150813090E-002
  1.210025318716335E-004 -2.644550996903126E-005 -3.368840358790501E-002
  9.341907591136951E-005 -1.820433386310308E-005 -2.206354227185236E-002
  6.696614002089152E-005  3.706333774179734E-006 -1.163592563617877E-002
  3.850554133511484E-004 -4.969211849107461E-006 -6.851450198366861E-002
  4.213565391410205E-004 -8.333229093394091E-006 -8.022351164665033E-002
  4.573166774208678E-004 -1.203922712236680E-005 -9.169378672232635E-002
  4.936017833768832E-004 -1.611371660073667E-005 -0.100975937719349     
  5.310318751112498E-004 -1.989417160905310E-005 -0.107189066493598     
  5.704638929856611E-004 -2.081934069059324E-005 -0.110012818535217     
  6.101244344974266E-004 -1.224803268116981E-005 -0.109655728834036     
  6.357651531694644E-004  1.601306947843664E-005 -0.106830527526243     
  5.970119861474553E-004  5.691795192300789E-005 -0.102959755327381     
  8.536867995712105E-004 -2.096260671802877E-005 -0.103944592105539     
  8.972652817405093E-004 -6.036220791590044E-005 -0.105802262418610     
  8.611482846639448E-004 -9.975582371491580E-005 -0.103945428682629     
  6.119970200459066E-004 -1.700476446939338E-004 -0.102961403794202     
  6.509944362115145E-004 -1.214032916055467E-004 -0.106832635228919     
  6.254713252753465E-004 -8.532784083597523E-005 -0.109658350521638     
  5.858249992732521E-004 -6.891405474002135E-005 -0.110016024059509     
  5.463038494390675E-004 -6.201527471501432E-005 -0.107192886449455     
  5.086810101850106E-004 -5.804222939086729E-005 -0.100980361049545     
  4.720994757010214E-004 -5.448549484157771E-005 -9.169877969440474E-002
  4.357392073126798E-004 -5.073425589700400E-005 -8.022900511754223E-002
  3.989334532945687E-004 -4.686666169907459E-005 -6.852017540164436E-002
  8.597212369858080E-004 -2.001823424600430E-005 -0.105554721344669     
  1.161185113932415E-003  2.094552576961444E-005 -0.114213811929974     
  1.398255614766342E-003  4.930567901334800E-005 -0.122349821981691     
  1.621310448812414E-003  5.801549616742340E-005 -0.128211352958880     
  1.844607181052054E-003  5.727492602328518E-005 -0.130970276395036     
  2.069929711999403E-003  5.375656290596039E-005 -0.130332507225307     
  2.296397862917273E-003  5.010468089458511E-005 -0.126529751170706     
  2.523009814209304E-003  4.710734259164361E-005 -0.120319426217871     
  2.748462708965528E-003  4.464296637120020E-005 -0.113318909026320     
  2.982729490400745E-003 -2.780715232786226E-005 -0.112545311877153     
  2.986396441800693E-003 -9.634663826547415E-005 -0.114389954102585     
  2.988512982061499E-003 -1.648258929206367E-004 -0.112544655898487     
  2.760883015725809E-003 -2.309143629538312E-004 -0.113317666332179     
  2.536096331917607E-003 -2.268350637963842E-004 -0.120318212128683     
  2.310045177105258E-003 -2.229834302348579E-004 -0.126528782644232     
  2.084034504950987E-003 -2.195321866238815E-004 -0.130331882642391     
  1.859066172214362E-003 -2.157445154039229E-004 -0.130970046538425     
  1.636020407881562E-003 -2.090277795235562E-004 -0.128211540451006     
  1.413113575614525E-003 -1.927611093154744E-004 -0.122350422687476     
  1.176088052377682E-003 -1.567910362838773E-004 -0.114214796420619     
  8.745428665295213E-004 -1.082108255526218E-004 -0.105555989692267     
  3.206387490606117E-003  3.730487086449587E-005 -0.112244910955636     
  3.438854928023994E-003  3.579414070791548E-005 -0.117234973886305     
  3.669833042492885E-003  3.474457597741783E-005 -0.121154405222219     
  3.899275495143298E-003  3.405288149913665E-005 -0.122489551335349     
  4.124958176429091E-003  3.198466011705304E-005 -0.120495348428662     
  4.343963636702611E-003  2.000067392146009E-005 -0.114924500936828     
  4.562454847298925E-003 -2.489049573052707E-005 -0.106031909730325     
  4.830223236743769E-003 -1.381968118842375E-004 -9.463053624585750E-002
  5.323453539750011E-003 -2.951701665743719E-004 -8.265259164639310E-002
  4.795967078733082E-003 -1.431440204126060E-004 -7.886247256444748E-002
  4.656430564582576E-003 -1.124217258780627E-004 -8.060891550576006E-002
  4.795557690553268E-003 -8.159335505464114E-005 -7.887443199673763E-002
  5.323909473472065E-003  7.068146467592477E-005 -8.267225995415707E-002
  4.832377582757189E-003 -8.543780408924854E-005 -9.464876172523409E-002
  4.566164572573227E-003 -1.971024094433846E-004 -0.106047539330494     
  4.349123677351843E-003 -2.396081862123734E-004 -0.114937261932654     
  4.131463804442322E-003 -2.485075547272425E-004 -0.120505117269547     
  3.907021546739180E-003 -2.468446142644576E-004 -0.122496329107734     
  3.678714256795460E-003 -2.432112489696467E-004 -0.121158369584664     
  3.448766076618064E-003 -2.393940425308052E-004 -0.117236491647176     
  3.217221317037447E-003 -2.355485357963151E-004 -0.112244590517385     
  5.119332798324228E-003 -5.215786299925966E-005 -7.516313013371584E-002
  4.421998359702348E-003 -2.081486028774921E-004 -7.346085547883598E-002
  3.950073061415942E-003 -3.198082253128210E-004 -6.998321378236096E-002
  3.527346462884346E-003 -3.625320303762317E-004 -6.389384246794129E-002
  3.104181131102418E-003 -3.721535689569886E-004 -5.487008488895929E-002
  2.675253152959646E-003 -3.720180519660321E-004 -4.316658287082906E-002
  2.246001854240298E-003 -3.698805139289683E-004 -2.979671378278939E-002
  1.823348637484100E-003 -3.605250543395692E-004 -1.658524493460074E-002
  1.408404906458578E-003 -3.264577535554857E-004 -6.159924696572006E-003
  9.447856540855393E-004 -1.322490635321191E-004 -1.910327361128059E-003
  9.397067634779470E-004 -9.450702593351014E-005 -1.927003196294753E-003
  9.368559372064612E-004 -5.663529576949625E-005 -1.925681469910071E-003
  1.394534114803627E-003  1.307657026526517E-004 -6.189139730399880E-003
  1.811361936968083E-003  1.585674452667474E-004 -1.661374220006042E-002
  2.235772540497090E-003  1.625616734530210E-004 -2.982422337457620E-002
  2.666661903914201E-003  1.601852647999679E-004 -4.319302289224187E-002
  3.097108352882462E-003  1.565960676857145E-004 -5.489544558050315E-002
  3.521672576787036E-003  1.439791329611510E-004 -6.391812484407108E-002
  3.945678899876614E-003  9.892919837848351E-005 -7.000651203093315E-002
  4.418764926206152E-003 -1.443853373479378E-005 -7.348332400331266E-002
  5.117103625745878E-003 -1.715713537989821E-004 -7.518422992413695E-002
 -4.757273556490805E-003 -5.270700892680596E-005 -7.428027852681560E-002
 -4.038524168221862E-003  1.057338164341011E-004 -7.255274309210964E-002
 -3.547915975813941E-003  2.195951149486859E-004 -6.904756534788997E-002
 -3.107050209596222E-003  2.640265974791785E-004 -6.293073769163009E-002
 -2.665725688842549E-003  2.754109079501385E-004 -5.388038269329597E-002
 -2.218803371330656E-003  2.774516671728864E-004 -4.215209764648678E-002
 -1.772442359287960E-003  2.776648138644754E-004 -2.876144154290151E-002
 -1.334598024670331E-003  2.685152998129257E-004 -1.553675397983454E-002
 -9.054435701346198E-004  2.285839094209294E-004 -5.110264484910282E-003
 -4.243140627266209E-004  1.841612000094945E-005 -8.307773782793134E-004
 -4.234743442169608E-004  6.839205427594572E-009 -8.336469211140483E-004
 -4.243067442722392E-004 -1.840173022402935E-005 -8.307755643682088E-004
 -9.053797768374538E-004 -2.285331142507644E-004 -5.110260205412631E-003
 -1.334490635633507E-003 -2.684153432573277E-004 -1.553674386693112E-002
 -1.772295220460060E-003 -2.774946870331673E-004 -2.876142359156646E-002
 -2.218620462287533E-003 -2.771925174538466E-004 -4.215207040768783E-002
 -2.665511102626119E-003 -2.750458430648674E-004 -5.388034544057657E-002
 -3.106808035990937E-003 -2.635408044349440E-004 -6.293069033431115E-002
 -3.547650295685166E-003 -2.189758264681321E-004 -6.904750820658302E-002
 -4.038239063951872E-003 -1.049701382680707E-004 -7.255267695312109E-002
 -4.756973890771053E-003  5.362409694128422E-005 -7.428020724300123E-002
 -4.638995794100160E-003  2.290689947857078E-004 -8.532950602333395E-002
 -4.377019953269764E-003  6.195991485240201E-007 -8.664508943984892E-002
 -4.638827945201594E-003 -2.278294235519312E-004 -8.532946475221122E-002
 -4.491035459931614E-003  7.239288261694647E-005 -9.508010566661952E-002
 -4.422357523384234E-003  7.103187665178078E-007 -9.569162711644016E-002
 -4.490857116895970E-003 -7.097075483579332E-005 -9.508006311127931E-002
 -4.281996955431746E-003 -2.536967081246087E-005 -0.105316478557224     
 -4.279911843052084E-003  8.068685384335705E-007 -0.105363177443904     
 -4.281809257901362E-003  2.698465811855015E-005 -0.105316431837485     
 -4.059358519566944E-003 -6.055505811728996E-005 -0.113875391114182     
 -4.067381634696056E-003  9.076347010083256E-007 -0.113764318410924     
 -4.059163485169551E-003  6.237127719777565E-005 -0.113875339966812     
 -3.835866383588789E-003 -6.780516963069864E-005 -0.119439223038583     
 -3.840688124800017E-003  1.011549559488131E-006 -0.119318328967452     
 -3.835666077792753E-003  6.982890508242708E-005 -0.119439167437371     
 -3.613562351449259E-003 -6.726046462764792E-005 -0.121488692704272     
 -3.615199755187599E-003  1.117583570359605E-006 -0.121376435483208     
 -3.613358829887692E-003  6.949595976913294E-005 -0.121488632685981     
 -3.392059838360170E-003 -6.577534089949784E-005 -0.120307952084502     
 -3.392341905534464E-003  1.224712242324349E-006 -0.120249385879238     
 -3.391855154986538E-003  6.822478604941968E-005 -0.120307888260137     
 -3.170927450662613E-003 -6.453061852358015E-005 -0.117010409629416     
 -3.171156261393534E-003  1.331905153394072E-006 -0.117158935833042     
 -3.170723654632056E-003  6.719414861459812E-005 -0.117010343057151     
 -2.950174357304323E-003 -6.340787505311745E-005 -0.113424015318560     
 -2.951353398607250E-003  1.438083634548093E-006 -0.114235950550590     
 -2.949973417165517E-003  6.628358118353853E-005 -0.113423943617997     
 -2.511367395021245E-003 -6.515573495543261E-005 -0.115013228262528     
 -2.512613751408540E-003  1.643694335233818E-006 -0.115967598592559     
 -2.511177612764471E-003  6.844190831792912E-005 -0.115013157871210     
 -2.293295541410096E-003 -6.433048910615974E-005 -0.120434126799798     
 -2.293559270061725E-003  1.741531466124895E-006 -0.120706531691733     
 -2.293114053968135E-003  6.781216001615445E-005 -0.120434063329734     
 -2.075513864523783E-003 -6.391996164429525E-005 -0.125935807643107     
 -2.075335150071069E-003  1.834805751666615E-006 -0.125907739440214     
 -2.075342652436323E-003  6.758787714715327E-005 -0.125935749343332     
 -1.857716391522560E-003 -6.398664757498512E-005 -0.129602174654028     