# vtk DataFile Version 3.0
 Bridge                                                                         
ASCII
DATASET UNSTRUCTURED_GRID
 POINTS        4085 double
   200.000000000000       -10.0000000000000       0.000000000000000E+000
   200.000000000000        10.0000000000000       0.000000000000000E+000
   150.000000000000        10.0000000000000       0.000000000000000E+000
   150.000000000000       -10.0000000000000       0.000000000000000E+000
   100.000000000000        10.0000000000000       0.000000000000000E+000
   100.000000000000       -10.0000000000000       0.000000000000000E+000
   50.0000000000000        10.0000000000000       0.000000000000000E+000
   50.0000000000000       -10.0000000000000       0.000000000000000E+000
  0.000000000000000E+000   10.0000000000000       0.000000000000000E+000
  0.000000000000000E+000  -10.0000000000000       0.000000000000000E+000
  -50.0000000000000        10.0000000000000       0.000000000000000E+000
  -50.0000000000000       -10.0000000000000       0.000000000000000E+000
  -100.000000000000        10.0000000000000       0.000000000000000E+000
  -100.000000000000       -10.0000000000000       0.000000000000000E+000
  -150.000000000000        10.0000000000000       0.000000000000000E+000
  -150.000000000000       -10.0000000000000       0.000000000000000E+000
  -200.000000000000        10.0000000000000       0.000000000000000E+000
  -200.000000000000       -10.0000000000000       0.000000000000000E+000
  -250.000000000000        10.0000000000000       0.000000000000000E+000
  -250.000000000000       -10.0000000000000       0.000000000000000E+000
   250.000000000000       -10.0000000000000       0.000000000000000E+000
   250.000000000000        10.0000000000000       0.000000000000000E+000
   200.000000000000       -5.00000000000000       0.000000000000000E+000
   200.000000000000       0.000000000000000E+000  0.000000000000000E+000
   200.000000000000        5.00000000000000       0.000000000000000E+000
   195.000000000000        10.0000000000000       0.000000000000000E+000
   190.000000000000        10.0000000000000       0.000000000000000E+000
   185.000000000000        10.0000000000000       0.000000000000000E+000
   180.000000000000        10.0000000000000       0.000000000000000E+000
   175.000000000000        10.0000000000000       0.000000000000000E+000
   170.000000000000        10.0000000000000       0.000000000000000E+000
   165.000000000000        10.0000000000000       0.000000000000000E+000
   160.000000000000        10.0000000000000       0.000000000000000E+000
   155.000000000000        10.0000000000000       0.000000000000000E+000
   150.000000000000        5.00000000000000       0.000000000000000E+000
   150.000000000000       0.000000000000000E+000  0.000000000000000E+000
   150.000000000000       -5.00000000000000       0.000000000000000E+000
   155.000000000000       -10.0000000000000       0.000000000000000E+000
   160.000000000000       -10.0000000000000       0.000000000000000E+000
   165.000000000000       -10.0000000000000       0.000000000000000E+000
   170.000000000000       -10.0000000000000       0.000000000000000E+000
   175.000000000000       -10.0000000000000       0.000000000000000E+000
   180.000000000000       -10.0000000000000       0.000000000000000E+000
   185.000000000000       -10.0000000000000       0.000000000000000E+000
   190.000000000000       -10.0000000000000       0.000000000000000E+000
   195.000000000000       -10.0000000000000       0.000000000000000E+000
   145.000000000000        10.0000000000000       0.000000000000000E+000
   140.000000000000        10.0000000000000       0.000000000000000E+000
   135.000000000000        10.0000000000000       0.000000000000000E+000
   130.000000000000        10.0000000000000       0.000000000000000E+000
   125.000000000000        10.0000000000000       0.000000000000000E+000
   120.000000000000        10.0000000000000       0.000000000000000E+000
   115.000000000000        10.0000000000000       0.000000000000000E+000
   110.000000000000        10.0000000000000       0.000000000000000E+000
   105.000000000000        10.0000000000000       0.000000000000000E+000
   100.000000000000        5.00000000000000       0.000000000000000E+000
   100.000000000000       0.000000000000000E+000  0.000000000000000E+000
   100.000000000000       -5.00000000000000       0.000000000000000E+000
   105.000000000000       -10.0000000000000       0.000000000000000E+000
   110.000000000000       -10.0000000000000       0.000000000000000E+000
   115.000000000000       -10.0000000000000       0.000000000000000E+000
   120.000000000000       -10.0000000000000       0.000000000000000E+000
   125.000000000000       -10.0000000000000       0.000000000000000E+000
   130.000000000000       -10.0000000000000       0.000000000000000E+000
   135.000000000000       -10.0000000000000       0.000000000000000E+000
   140.000000000000       -10.0000000000000       0.000000000000000E+000
   145.000000000000       -10.0000000000000       0.000000000000000E+000
   95.0000000000000        10.0000000000000       0.000000000000000E+000
   90.0000000000000        10.0000000000000       0.000000000000000E+000
   85.0000000000000        10.0000000000000       0.000000000000000E+000
   80.0000000000000        10.0000000000000       0.000000000000000E+000
   75.0000000000000        10.0000000000000       0.000000000000000E+000
   70.0000000000000        10.0000000000000       0.000000000000000E+000
   65.0000000000000        10.0000000000000       0.000000000000000E+000
   60.0000000000000        10.0000000000000       0.000000000000000E+000
   55.0000000000000        10.0000000000000       0.000000000000000E+000
   50.0000000000000        5.00000000000000       0.000000000000000E+000
   50.0000000000000       0.000000000000000E+000  0.000000000000000E+000
   50.0000000000000       -5.00000000000000       0.000000000000000E+000
   55.0000000000000       -10.0000000000000       0.000000000000000E+000
   60.0000000000000       -10.0000000000000       0.000000000000000E+000
   65.0000000000000       -10.0000000000000       0.000000000000000E+000
   70.0000000000000       -10.0000000000000       0.000000000000000E+000
   75.0000000000000       -10.0000000000000       0.000000000000000E+000
   80.0000000000000       -10.0000000000000       0.000000000000000E+000
   85.0000000000000       -10.0000000000000       0.000000000000000E+000
   90.0000000000000       -10.0000000000000       0.000000000000000E+000
   95.0000000000000       -10.0000000000000       0.000000000000000E+000
   45.0000000000000        10.0000000000000       0.000000000000000E+000
   40.0000000000000        10.0000000000000       0.000000000000000E+000
   35.0000000000000        10.0000000000000       0.000000000000000E+000
   30.0000000000000        10.0000000000000       0.000000000000000E+000
   25.0000000000000        10.0000000000000       0.000000000000000E+000
   20.0000000000000        10.0000000000000       0.000000000000000E+000
   15.0000000000000        10.0000000000000       0.000000000000000E+000
   10.0000000000000        10.0000000000000       0.000000000000000E+000
   5.00000000000000        10.0000000000000       0.000000000000000E+000
  0.000000000000000E+000   5.00000000000000       0.000000000000000E+000
  0.000000000000000E+000  0.000000000000000E+000  0.000000000000000E+000
  0.000000000000000E+000  -5.00000000000000       0.000000000000000E+000
   5.00000000000000       -10.0000000000000       0.000000000000000E+000
   10.0000000000000       -10.0000000000000       0.000000000000000E+000
   15.0000000000000       -10.0000000000000       0.000000000000000E+000
   20.0000000000000       -10.0000000000000       0.000000000000000E+000
   25.0000000000000       -10.0000000000000       0.000000000000000E+000
   30.0000000000000       -10.0000000000000       0.000000000000000E+000
   35.0000000000000       -10.0000000000000       0.000000000000000E+000
   40.0000000000000       -10.0000000000000       0.000000000000000E+000
   45.0000000000000       -10.0000000000000       0.000000000000000E+000
  -5.00000000000000        10.0000000000000       0.000000000000000E+000
  -10.0000000000000        10.0000000000000       0.000000000000000E+000
  -15.0000000000000        10.0000000000000       0.000000000000000E+000
  -20.0000000000000        10.0000000000000       0.000000000000000E+000
  -25.0000000000000        10.0000000000000       0.000000000000000E+000
  -30.0000000000000        10.0000000000000       0.000000000000000E+000
  -35.0000000000000        10.0000000000000       0.000000000000000E+000
  -40.0000000000000        10.0000000000000       0.000000000000000E+000
  -45.0000000000000        10.0000000000000       0.000000000000000E+000
  -50.0000000000000        5.00000000000000       0.000000000000000E+000
  -50.0000000000000       0.000000000000000E+000  0.000000000000000E+000
  -50.0000000000000       -5.00000000000000       0.000000000000000E+000
  -45.0000000000000       -10.0000000000000       0.000000000000000E+000
  -40.0000000000000       -10.0000000000000       0.000000000000000E+000
  -35.0000000000000       -10.0000000000000       0.000000000000000E+000
  -30.0000000000000       -10.0000000000000       0.000000000000000E+000
  -25.0000000000000       -10.0000000000000       0.000000000000000E+000
  -20.0000000000000       -10.0000000000000       0.000000000000000E+000
  -15.0000000000000       -10.0000000000000       0.000000000000000E+000
  -10.0000000000000       -10.0000000000000       0.000000000000000E+000
  -5.00000000000000       -10.0000000000000       0.000000000000000E+000
  -55.0000000000000        10.0000000000000       0.000000000000000E+000
  -60.0000000000000        10.0000000000000       0.000000000000000E+000
  -65.0000000000000        10.0000000000000       0.000000000000000E+000
  -70.0000000000000        10.0000000000000       0.000000000000000E+000
[...]
 CELL_DATA        2884
 POINT_DATA        4085
 FIELD Result            2
 Displacement_Load_Case01            3        4085 double
 -3.683713787799302E-002  2.664293660375472E-004 -0.106656978344606     
 -3.683707989556954E-002 -2.660393345253040E-004 -0.106656942238136     
 -8.764182162083550E-003  1.089374219618398E-003 -0.159665852207606     
 -8.764359307548892E-003 -1.088148589242554E-003 -0.159665900294198     
  1.224482065067985E-002  3.974980518047604E-004 -0.117399547914463     
  1.224478542838498E-002 -3.955043023335055E-004 -0.117399588037271     
  4.098371454750108E-003 -2.453075000531014E-004 -6.149929717172889E-002
  4.098549940514554E-003  2.471771893138064E-004 -6.149938346904961E-002
  1.158525506600929E-007 -7.267365252666332E-004 -6.650474735839878E-003
  2.490017109554737E-007  7.264829096533211E-004 -6.650446892187942E-003
 -4.114515164339102E-003 -2.755296477569150E-004 -6.150915463305315E-002
 -4.099135388394013E-003  2.177676414895021E-004 -6.151293936648192E-002
 -1.226748570941440E-002  3.336271499639681E-004 -0.117464618311509     
 -1.226330594493357E-002 -4.600909750972896E-004 -0.117469756555731     
  8.762915616386842E-003  9.989417993042976E-004 -0.159866683099642     
  8.773016686340847E-003 -1.181040775060518E-003 -0.159872960073289     
  3.681572000634653E-002 -3.599734370059387E-004 -0.107066835369969     
  3.680714123597695E-002  1.527508898809623E-004 -0.107091347210129     
  2.626971669204263E-004 -5.553390898253925E-004 -3.422840859742271E-004
  2.470598205235505E-004  3.759833874489670E-004 -3.714931003406678E-004
 -1.300585251471295E-004  1.968678207250865E-004 -1.687351709709823E-004
 -1.300570166187145E-004 -1.968700960202488E-004 -1.687311339782311E-004
 -2.467530686185310E-002  1.338046161750489E-004 -0.279558141838482     
 -2.368956320027105E-002  1.936903854296381E-007 -0.376712765049600     
 -2.467526162866137E-002 -1.334165714688411E-004 -0.279558193616306     
 -2.813329526969158E-002 -1.127292610432846E-003  -4.48738514087681     
 -2.437261333939844E-002 -2.006127230227623E-005  -14.7103711284552     
 -2.220662370151736E-002  7.758257237625404E-004  -25.6660850733787     
 -2.038926508461259E-002  1.085298387428898E-003  -33.7039533703583     
 -1.856877498662748E-002  1.159186911976640E-003  -36.6332526404930     
 -1.670217298931497E-002  1.158438716704432E-003  -33.7228960904585     
 -1.480879070577854E-002  1.138640447235770E-003  -25.7018748694543     
 -1.289364449354951E-002  1.104409405871768E-003  -14.7588818889507     
 -1.091887926438067E-002  1.061828834365711E-003  -4.54230014495973     
 -9.205678528788551E-003  5.454290490522296E-004 -0.459604051947508     
 -9.241398677796150E-003  6.129994431407096E-007 -0.626810395477375     
 -9.205770271259990E-003 -5.442031433979393E-004 -0.459603939309997     
 -1.091906477327561E-002 -1.060700363736560E-003  -4.54230019105250     
 -1.289383218190860E-002 -1.103380486626141E-003  -14.7588819344335     
 -1.480897645739665E-002 -1.137710832118274E-003  -25.7018749134001     
 -1.670235314794985E-002 -1.157606427728129E-003  -33.7228961335597     
 -1.856894589645299E-002 -1.158448241488734E-003  -36.6332526822447     
 -2.038942308960495E-002 -1.084647795914281E-003  -33.7039534110904     
 -2.220676516281717E-002 -7.752558356091926E-004  -25.6660851129318     
 -2.437273461516153E-002  2.055930675796720E-005  -14.7103711668235     
 -2.813339111568599E-002  1.127729120846861E-003  -4.48738517821085     
 -7.274475147628982E-003  1.124056055383588E-003  -4.53625443427207     
 -5.605865157231321E-003  1.085311673443830E-003  -14.7511150590358     
 -3.880134826776015E-003  1.059028369639353E-003  -25.6956715310604     
 -2.145863432585057E-003  1.051789341869187E-003  -33.7206160569698     
 -4.240074680528721E-004  1.048280398416022E-003  -36.6361347994713     
  1.274266329831864E-003  1.014506360913667E-003  -33.7123236183127     
  2.969665080322873E-003  8.737204600151417E-004  -25.6790427008103     
  4.823713707656056E-003  5.106188060267958E-004  -14.7260924333528     
  7.405741697914345E-003  5.082348702048871E-006  -4.50268660932874     
  6.691991674563251E-003  1.991630660622500E-004 -0.504524150648648     
  6.241903224687741E-003  9.996636251635521E-007 -0.719061518817435     
  6.691963316123554E-003 -1.971651255967031E-004 -0.504523971951622     
  7.405669177385333E-003 -3.122642418716037E-006  -4.50268664889192     
  4.823613668487998E-003 -5.087090355715953E-004  -14.7260924747222     
  2.969542277641079E-003 -8.718724336677859E-004  -25.6790427423074     
  1.274124389024742E-003 -1.012730321444128E-003  -33.7123236612830     
 -4.241649272126714E-004 -1.046585018316044E-003  -36.6361348428247     
 -2.146032778649029E-003 -1.050181473162960E-003  -33.7206161015639     
 -3.880312430046530E-003 -1.057513045425898E-003  -25.6956715762595     
 -5.606047386624681E-003 -1.083892209849619E-003  -14.7511151052677     
 -7.274657911189746E-003 -1.122734052293020E-003  -4.53625448127094     
  8.725152030688754E-003  7.888223919884588E-004  -4.49291199633510     
  7.462707198616281E-003  2.830308636923634E-004  -14.7060771815245     
  6.928284941085224E-003 -8.034303749091505E-005  -25.6484967767489     
  6.552824507196033E-003 -2.214827420185487E-004  -33.6711714071926     
  6.175498653610367E-003 -2.552072641200733E-004  -36.5844349998649     
  5.776399568210836E-003 -2.559140335118825E-004  -33.6586422764845     
  5.364989072274568E-003 -2.513725996844347E-004  -25.6237747007608     
  4.948686368003010E-003 -2.474083648812800E-004  -14.6698476753241     
  4.528426432060485E-003 -2.443037235477297E-004  -4.44617256801261     
  4.122351603530948E-003 -1.222436389682447E-004 -0.499568931748179     
  4.124246459665097E-003  9.431942292868894E-007 -0.741496232560690     
  4.122445507498171E-003  1.241259429037794E-004 -0.499568723816805     
  4.528566591525349E-003  2.462496039595146E-004  -4.44617264755775     
  4.948790900223565E-003  2.494093842500980E-004  -14.6698477518784     
  5.365061707667865E-003  2.534118450383683E-004  -25.6237747715257     
  5.776444162537659E-003  2.579764744550051E-004  -33.6586423438037     
  6.175519025814791E-003  2.572798476928969E-004  -36.5844350617350     
  6.552824471229097E-003  2.235543109225427E-004  -33.6711714653126     
  6.928268297216211E-003  8.240434851156710E-005  -25.6484968297032     
  7.462677746606042E-003 -2.809873993738880E-004  -14.7060772304711     
  8.725114693800717E-003 -7.868026968489532E-004  -4.49291204029669     
  3.704743686399722E-003 -2.476490619559112E-004  -4.43742331843517     
  3.301541476004239E-003 -2.456496833289546E-004  -14.6501801238961     
  2.895300034191910E-003 -2.441065910280146E-004  -25.5916474538196     
  2.488460304997700E-003 -2.430932685494580E-004  -33.6131447695574     
  2.081259510511046E-003 -2.415090817342296E-004  -36.5252667797602     
  1.671731139970219E-003 -2.386825518395571E-004  -33.5986614059453     
  1.254385640869457E-003 -2.372203171792630E-004  -25.5635590055595     
  8.208312298931358E-004 -2.565045180966227E-004  -14.6102467182160     
  3.771289354673843E-004 -3.205946076258178E-004  -4.38827593297784     
 -2.101833385377662E-006 -2.957030823089260E-004 -0.461531818113617     
 -1.622680549508758E-006 -1.515445134531095E-007 -0.712441931468163     
 -8.728461375209843E-007  2.954001559395338E-004 -0.461531518508317     
  3.778411821520184E-004  3.203609578244256E-004  -4.38827591262653     
  8.215661147858723E-004  2.567273997016925E-004  -14.6102467124680     
  1.255032002306705E-003  2.378000772508893E-004  -25.5635590088744     
  1.672291317132723E-003  2.395546522377223E-004  -33.5986614230140     
  2.081741124587276E-003  2.426318369281764E-004  -36.5252668065688     
  2.488869643941855E-003  2.444291942085261E-004  -33.6131448095051     
  2.895643052260262E-003  2.456211126833867E-004  -25.5916475040829     
  3.301824079242636E-003  2.473111383060666E-004  -14.6501801867677     
  3.704971585769433E-003  2.494288555713307E-004  -4.43742339203733     
 -3.814196453426156E-004 -3.212927837318972E-004  -4.38827289439240     
 -8.275552421904828E-004 -2.592118297216976E-004  -14.6102433090437     
 -1.262860004948250E-003 -2.423556332973913E-004  -25.5635572176071     
 -1.681723789049571E-003 -2.465715771485625E-004  -33.5986625089579     
 -2.092635626116257E-003 -2.525019774475874E-004  -36.5252714244894     
 -2.501096127799652E-003 -2.575165981283382E-004  -33.6131528892191     
 -2.909065137013051E-003 -2.622372666053459E-004  -25.5916584419668     
 -3.316295288791045E-003 -2.677045596929172E-004  -14.6501926832409     
 -3.720317815698694E-003 -2.737750403062779E-004  -4.43743571447916     
 -4.134789579375523E-003 -1.522454838681914E-004 -0.499752769999640     
 -4.132803685210196E-003 -2.884920158712373E-005 -0.741732233075783     
 -4.127093201552712E-003  9.453100513493876E-005 -0.499754373072810     
 -3.705030804739975E-003  2.241452885846900E-004  -4.43743911835834     
 -3.301463609418505E-003  2.260679736315719E-004  -14.6501957047969     
 -2.894985442102893E-003  2.282819151723813E-004  -25.5916610819715     
 -2.488050164057997E-003  2.307930129703124E-004  -33.6131551481760     
 -2.080905065263798E-003  2.324228752064715E-004  -36.5252733005006     
 -1.671590114786645E-003  2.324089177100077E-004  -33.5986640053566     
 -1.254603556206190E-003  2.332385460854858E-004  -25.5635583295879     
 -8.214515549335344E-004  2.541569830993672E-004  -14.6102440429516     
 -3.778478160851819E-004  3.191914464582868E-004  -4.38827324215811     
 -4.545555932256088E-003 -2.786866163211990E-004  -4.44618150460070     
 -4.966546421620263E-003 -2.860117348447746E-004  -14.6698600895610     
 -5.383406943774002E-003 -2.941449388139835E-004  -25.6237938815003     
 -5.795224041341101E-003 -3.027324531347859E-004  -33.6586701207045     
 -6.194573518556882E-003 -3.058758486268524E-004  -36.5844724773233     
 -6.571982548523636E-003 -2.757024723524170E-004  -33.6712182202328     
 -6.947384609681300E-003 -1.376523408147823E-004  -25.6485519143045     
 -7.481807007440696E-003  2.232872570623584E-004  -14.7061385215814     
 -8.744933603773979E-003  7.272515017408500E-004  -4.49297695320234     
 -6.707599521445329E-003  1.350847672526871E-004 -0.504942885605671     
 -6.255024824716827E-003 -6.327008180738864E-005 -0.719575216881404     
 -6.703718981563613E-003 -2.616057853023538E-004 -0.504945185411405     
 -8.737363168779880E-003 -8.500915258877472E-004  -4.49298195276074     
 -7.472066586865236E-003 -3.411942667570533E-004  -14.7061433883211     
 -6.935928839804555E-003  2.553512871857250E-005  -25.6485566436556     
 -6.559095246722847E-003  1.701263312170424E-004  -33.6712228162501     
 -6.180538151251640E-003  2.074871331488266E-004  -36.5844769362873     
 -5.780326014827539E-003  2.120339966412016E-004  -33.6586744460591     
 -5.367932041988343E-003  2.114966128528566E-004  -25.6237980700401     
 -4.950780373688664E-003  2.116336344693563E-004  -14.6698641443020     
 -4.529799228405487E-003  2.126589961349845E-004  -4.44618542257832     
 -7.423995461063007E-003 -6.098935802217528E-005  -4.50275491738673     
 -4.839762998491675E-003  4.429347099640888E-004  -14.7261713971590     
 -2.984191339013918E-003  8.039533761379664E-004  -25.6791377728745     
 -1.287327181456769E-003  9.421386663962763E-004  -33.7124377876646     
  4.125547066991427E-004  9.729897736485845E-004  -36.6362694691205     
  2.136187737528522E-003  9.734186880584407E-004  -33.7207704909715     
  3.872392087513594E-003  9.775308362029861E-004  -25.6958438426233     
  5.600190561220714E-003  1.000723853134102E-003  -14.7513016051519     
  7.270974713636723E-003  1.036476453522580E-003  -4.53645092165541     
  9.207196923536767E-003  4.543021871392801E-004 -0.460351585804872     
  9.245503634673727E-003 -9.115373234423652E-005 -0.627673233512207     
  9.212398052723340E-003 -6.365583824161157E-004 -0.460354516323727     
  7.282047478286820E-003 -1.212812765411869E-003  -4.53645707779298     
  5.611799674261462E-003 -1.170909955927190E-003  -14.7513076532540     
  3.884224691988806E-003 -1.141396256603954E-003  -25.6958497722076     
  2.147959287709589E-003 -1.130928491470124E-003  -33.7207763112830     
  4.239810557657967E-004 -1.124245519492702E-003  -36.6362751718766     
 -1.276529961577190E-003 -1.087384067690495E-003  -33.7124433802976     
 -2.974305276949502E-003 -9.435749370673185E-004  -25.6791432487255     
 -4.831070524708476E-003 -5.774231868913991E-004  -14.7261767622016     
 -7.416949874157535E-003 -6.896149949694135E-005  -4.50276016613464     
  1.092002845089841E-002  9.686350091601914E-004  -4.54251050284445     
  1.289728346094979E-002  1.008637853280720E-003  -14.7591145764974     
  1.481504404075000E-002  1.040476800777507E-003  -25.7021386038061     
  1.671123376512466E-002  1.058134675145428E-003  -33.7231948456273     
  1.858095149493862E-002  1.057154519309331E-003  -36.6335870253241     
  2.040499042997574E-002  9.823892690014836E-004  -33.7043199748978     
  2.222607778481661E-002  6.739238158981653E-004  -25.6664779466458     
  2.439392486878978E-002 -1.175331316560346E-004  -14.7107811376271     
  2.814740392976009E-002 -1.217865064578499E-003  -4.48780155920327     
  2.472181560628818E-002 -2.325540138011451E-004 -0.280734766619831     
  2.374069631885520E-002 -1.038962489621998E-004 -0.377981402492072     
  2.471949736491076E-002  2.489605181524872E-005 -0.280746943629864     
  2.814316863263975E-002  1.007969378009263E-003  -4.48782426635956     
  2.439269682660638E-002 -9.306802429879141E-005  -14.7108020025320     
  2.222735597481695E-002 -8.839878297067071E-004  -25.6664969972059     
  2.040846937169460E-002 -1.190778207424408E-003  -33.7043371925399     
  1.858632941388958E-002 -1.262842759214423E-003  -36.6336024194694     
  1.671820669372263E-002 -1.260248473291325E-003  -33.7232084159152     
  1.482330772205960E-002 -1.238294916565173E-003  -25.7021503415447     
  1.290653393249376E-002 -1.201584992191198E-003  -14.7591244995280     
  1.092993413483877E-002 -1.156282634771144E-003  -4.54251858384685     
  2.727995722585055E-002  4.911623016268728E-004  -4.48608960617009     
  2.266007895855149E-002 -6.096212352473096E-004  -14.6949781196198     
  1.962540102125147E-002 -1.400556090150733E-003  -25.6277085145085     
  1.693689422591096E-002 -1.708794000065245E-003  -33.6369517216342     
  1.424622678486607E-002 -1.785890857983970E-003  -36.5356413333784     
  1.151668257870060E-002 -1.793393925938628E-003  -33.5958935577229     
  8.784002693022583E-003 -1.779039112961047E-003  -25.5505449333270     
  6.080447590162495E-003 -1.697255210679065E-003  -14.5914817636105     
  3.360284768792307E-003 -1.435812876301456E-003  -4.37116319100754     
  6.158687767218209E-004 -2.393273831188787E-004 -2.090392916606238E-003
  7.197226026269204E-004 -8.971283391051735E-005 -2.026437978433342E-003
  6.080272459240558E-004  5.991507730137239E-005 -2.105032860247002E-003
  3.347797859467396E-003  1.250792542410588E-003  -4.37119194094145     
  6.070504682741289E-003  1.507407527843889E-003  -14.5915100335220     
  8.776121170042011E-003  1.585523748103400E-003  -25.5505727418000     
  1.151037907403829E-002  1.597116540213935E-003  -33.5959208883430     
  1.424100915476634E-002  1.587519757484397E-003  -36.5356682005607     
  1.693227092008347E-002  1.508748945298419E-003  -33.6369781128087     
  1.962088263684511E-002  1.199009358886196E-003  -25.6277344405387     
  2.265517898766641E-002  4.065446168362312E-004  -14.6950035712207     
  2.727400009155254E-002 -6.960062565012351E-004  -4.48611459117645     
 -2.723337650846006E-002 -5.888706335052391E-004  -4.48569080507273     
 -2.257351109545939E-002  5.191460956196565E-004  -14.6945933939394     
 -1.950771731411041E-002  1.315403973121041E-003  -25.6273415587306     
 -1.678963208974800E-002  1.626325414442415E-003  -33.6366074968525     
 -1.406880573773188E-002  1.705726810444776E-003  -36.5353240494692     
 -1.130919985504541E-002  1.717722064183342E-003  -33.5956072379642     
 -8.551172482567707E-003  1.712039134564968E-003  -25.5502912307352     
 -5.839767172204947E-003  1.635688996226554E-003  -14.5912604724173     
 -3.150203412815042E-003  1.356158828443486E-003  -4.37096988332131     
 -2.691541593653436E-004  6.682228254285065E-005 -8.973933214621954E-004
 -3.132959700552573E-004 -8.429837352933984E-010 -8.656852249258197E-004
 -2.691535216271184E-004 -6.682414334103153E-005 -8.973924721617304E-004
 -3.150178112074276E-003 -1.356143469943926E-003  -4.37096987574046     
 -5.839722563790157E-003 -1.635650438703754E-003  -14.5912604619851     
 -8.551112085588525E-003 -1.711968508576212E-003  -25.5502912169230     
 -1.130912722457328E-002 -1.717612395616247E-003  -33.5956072211410     
 -1.406872450695694E-002 -1.705572870096075E-003  -36.5353240294220     
 -1.678954588663908E-002 -1.626123812374278E-003  -33.6366074736400     
 -1.950762974827822E-002 -1.315153138796056E-003  -25.6273415324480     
 -2.257342578026178E-002 -5.188459187886510E-004  -14.6945933643332     
 -2.723329866068842E-002  5.892187996350059E-004  -4.48569077257681     
 -2.568351205467658E-002  1.487338355249341E-003  -4.67232416117843     
 -2.385368096151047E-002  2.165442015804008E-007  -4.77629493229566     
 -2.568346359160814E-002 -1.486906409590193E-003  -4.67232421853398     
 -2.428792262765316E-002  3.924818114916171E-004  -14.9063992120091     
 -2.380852106730172E-002  2.459524219960025E-007  -15.0183098712934     
 -2.428786413294088E-002 -3.919883951839227E-004  -14.9063992751191     
 -2.246550512024835E-002 -2.913145950060148E-004  -25.8729237265360     
 -2.245141221501508E-002  2.821713927779231E-007  -25.9932200444888     
 -2.246543654883909E-002  2.918803140366122E-004  -25.8729237954496     
 -2.054799009587366E-002 -5.380996190850666E-004  -33.9221916601518     
 -2.060428242320285E-002  3.230784108718275E-007  -34.0504410529926     
 -2.054791320681798E-002  5.387468925740946E-004  -33.9221917349346     
 -1.862432996259853E-002 -5.895529926821441E-004  -36.8636550448430     
 -1.865759125321360E-002  3.676729927981176E-007  -36.9993448200440     
 -1.862424661327031E-002  5.902891695226326E-004  -36.8636551257474     
 -1.670870898979515E-002 -5.848656120483387E-004  -33.9665525282594     
 -1.671901880726263E-002  4.150339199209228E-007  -34.1087234630536     
 -1.670862101838846E-002  5.856962329588079E-004  -33.9665526151647     
 -1.479886540145203E-002 -5.675104685853609E-004  -25.9595594946542     
 -1.480186444877297E-002  4.642480855998037E-007  -26.1077626155454     
 -1.479877464683872E-002  5.684392473971719E-004  -25.9595595880370     
 -1.289456421543084E-002 -5.380958241024784E-004  -15.0311541250447     
 -1.291162751955860E-002  5.143758056759406E-007  -15.1849174943213     
 -1.289447248829567E-002  5.391246231298882E-004  -15.0311542245814     
 -1.100617583571942E-002 -4.961434698003278E-004  -4.82891047357867     
 -1.107225807203565E-002  5.641537510920629E-007  -4.98887215966487     
 -1.100608442898157E-002  4.972723938287190E-004  -4.82891058001371     
 -7.364735926666807E-003 -5.941819310905403E-004  -4.84432718423310     
 -7.431194899192894E-003  6.614920367991877E-007  -5.01575546168168     
 -7.364645871996212E-003  5.955040993095065E-004  -4.84432730288272     
 -5.610324704418975E-003 -5.557151649534642E-004  -15.0662961708987     
 -5.627899413900498E-003  7.102218423225313E-007  -15.2429715779289     
 -5.610235690457286E-003  5.571353565947940E-004  -15.0662962953637     
 -3.871247455604452E-003 -5.329711577080781E-004  -26.0177294922232     
 -3.870594393843893E-003  7.586233029963267E-007  -26.2003953918317     
 -3.871160760176320E-003  5.344879209136990E-004  -26.0177296230422     
 -2.134670693121288E-003 -5.277856975546622E-004  -34.0500744083196     