# vtk DataFile Version 3.0
 BEAM                                                                           
  
ASCII
DATASET UNSTRUCTURED_GRID
 POINTS           2 double
  0.000000000000000E+000  0.000000000000000E+000  0.000000000000000E+000
  0.000000000000000E+000   2.00000000000000       0.000000000000000E+000
 CELLS            1           3
           2           0           1
 CELL_TYPES            1
           3
 CELL_DATA           1
 POINT_DATA           2
 FIELD Result            2
 Displacement_Load_Case01            3           2 double
  0.000000000000000E+000  0.000000000000000E+000  0.000000000000000E+000
  0.000000000000000E+000  0.000000000000000E+000 -1.333333333333333E-010
 Stress_Load_Case01            6           2 double
  0.000000000000000E+000  0.000000000000000E+000  -500.000000000000     
  0.000000000000000E+000  -500.000000000000       0.000000000000000E+000
  0.000000000000000E+000  0.000000000000000E+000  -500.000000000000     
  0.000000000000000E+000  -500.000000000000       0.000000000000000E+000
