# vtk DataFile Version 3.0
 Bridge                                                                          
ASCII
DATASET UNSTRUCTURED_GRID
 POINTS        4085 double
   200.00000000000000       -10.000000000000000        0.0000000000000000     
   200.00000000000000        10.000000000000000        0.0000000000000000     
   150.00000000000000        10.000000000000000        0.0000000000000000     
   150.00000000000000       -10.000000000000000        0.0000000000000000     
   100.00000000000000        10.000000000000000        0.0000000000000000     
   100.00000000000000       -10.000000000000000        0.0000000000000000     
   50.000000000000000        10.000000000000000        0.0000000000000000     
   50.000000000000000       -10.000000000000000        0.0000000000000000     
   0.0000000000000000        10.000000000000000        0.0000000000000000     
   0.0000000000000000       -10.000000000000000        0.0000000000000000     
  -50.000000000000000        10.000000000000000        0.0000000000000000     
  -50.000000000000000       -10.000000000000000        0.0000000000000000     
  -100.00000000000000        10.000000000000000        0.0000000000000000     
  -100.00000000000000       -10.000000000000000        0.0000000000000000     
  -150.00000000000000        10.000000000000000        0.0000000000000000     
  -150.00000000000000       -10.000000000000000        0.0000000000000000     
  -200.00000000000000        10.000000000000000        0.0000000000000000     
  -200.00000000000000       -10.000000000000000        0.0000000000000000     
  -250.00000000000000        10.000000000000000        0.0000000000000000     
  -250.00000000000000       -10.000000000000000        0.0000000000000000     
   250.00000000000000       -10.000000000000000        0.0000000000000000     
   250.00000000000000        10.000000000000000        0.0000000000000000     
   200.00000000000000       -5.0000000000000000        0.0000000000000000     
   200.00000000000000        0.0000000000000000        0.0000000000000000     
   200.00000000000000        5.0000000000000000        0.0000000000000000     
   195.00000000000000        10.000000000000000        0.0000000000000000     
   190.00000000000000        10.000000000000000        0.0000000000000000     
   185.00000000000000        10.000000000000000        0.0000000000000000     
   180.00000000000000        10.000000000000000        0.0000000000000000     
   175.00000000000000        10.000000000000000        0.0000000000000000     
   170.00000000000000        10.000000000000000        0.0000000000000000     
   165.00000000000000        10.000000000000000        0.0000000000000000     
   160.00000000000000        10.000000000000000        0.0000000000000000     
   155.00000000000000        10.000000000000000        0.0000000000000000     
   150.00000000000000        5.0000000000000000        0.0000000000000000     
   150.00000000000000        0.0000000000000000        0.0000000000000000     
   150.00000000000000       -5.0000000000000000        0.0000000000000000     
   155.00000000000000       -10.000000000000000        0.0000000000000000     
   160.00000000000000       -10.000000000000000        0.0000000000000000     
   165.00000000000000       -10.000000000000000        0.0000000000000000     
   170.00000000000000       -10.000000000000000        0.0000000000000000     
   175.00000000000000       -10.000000000000000        0.0000000000000000     
   180.00000000000000       -10.000000000000000        0.0000000000000000     
   185.00000000000000       -10.000000000000000        0.0000000000000000     
   190.00000000000000       -10.000000000000000        0.0000000000000000     
   195.00000000000000       -10.000000000000000        0.0000000000000000     
   145.00000000000000        10.000000000000000        0.0000000000000000     
   140.00000000000000        10.000000000000000        0.0000000000000000     
   135.00000000000000        10.000000000000000        0.0000000000000000     
   130.00000000000000        10.000000000000000        0.0000000000000000     
   125.00000000000000        10.000000000000000        0.0000000000000000     
   120.00000000000000        10.000000000000000        0.0000000000000000     
   115.00000000000000        10.000000000000000        0.0000000000000000     
   110.00000000000000        10.000000000000000        0.0000000000000000     
   105.00000000000000        10.000000000000000        0.0000000000000000     
   100.00000000000000        5.0000000000000000        0.0000000000000000     
   100.00000000000000        0.0000000000000000        0.0000000000000000     
   100.00000000000000       -5.0000000000000000        0.0000000000000000     
   105.00000000000000       -10.000000000000000        0.0000000000000000     
   110.00000000000000       -10.000000000000000        0.0000000000000000     
   115.00000000000000       -10.000000000000000        0.0000000000000000     
   120.00000000000000       -10.000000000000000        0.0000000000000000     
   125.00000000000000       -10.000000000000000        0.0000000000000000     
   130.00000000000000       -10.000000000000000        0.0000000000000000     
   135.00000000000000       -10.000000000000000        0.0000000000000000     
   140.00000000000000       -10.000000000000000        0.0000000000000000     
   145.00000000000000       -10.000000000000000        0.0000000000000000     
   95.000000000000000        10.000000000000000        0.0000000000000000     
   90.000000000000000        10.000000000000000        0.0000000000000000     
   85.000000000000000        10.000000000000000        0.0000000000000000     
   80.000000000000000        10.000000000000000        0.0000000000000000     
   75.000000000000000        10.000000000000000        0.0000000000000000     
   70.000000000000000        10.000000000000000        0.0000000000000000     
   65.000000000000000        10.000000000000000        0.0000000000000000     
   60.000000000000000        10.000000000000000        0.0000000000000000     
   55.000000000000000        10.000000000000000        0.0000000000000000     
   50.000000000000000        5.0000000000000000        0.0000000000000000     
   50.000000000000000        0.0000000000000000        0.0000000000000000     
   50.000000000000000       -5.0000000000000000        0.0000000000000000     
   55.000000000000000       -10.000000000000000        0.0000000000000000     
   60.000000000000000       -10.000000000000000        0.0000000000000000     
   65.000000000000000       -10.000000000000000        0.0000000000000000     
   70.000000000000000       -10.000000000000000        0.0000000000000000     
   75.000000000000000       -10.000000000000000        0.0000000000000000     
   80.000000000000000       -10.000000000000000        0.0000000000000000     
   85.000000000000000       -10.000000000000000        0.0000000000000000     
   90.000000000000000       -10.000000000000000        0.0000000000000000     
   95.000000000000000       -10.000000000000000        0.0000000000000000     
   45.000000000000000        10.000000000000000        0.0000000000000000     
   40.000000000000000        10.000000000000000        0.0000000000000000     
   35.000000000000000        10.000000000000000        0.0000000000000000     
   30.000000000000000        10.000000000000000        0.0000000000000000     
   25.000000000000000        10.000000000000000        0.0000000000000000     
   20.000000000000000        10.000000000000000        0.0000000000000000     
   15.000000000000000        10.000000000000000        0.0000000000000000     
   10.000000000000000        10.000000000000000        0.0000000000000000     
   5.0000000000000000        10.000000000000000        0.0000000000000000     
   0.0000000000000000        5.0000000000000000        0.0000000000000000     
   0.0000000000000000        0.0000000000000000        0.0000000000000000     
   0.0000000000000000       -5.0000000000000000        0.0000000000000000     
   5.0000000000000000       -10.000000000000000        0.0000000000000000     
   10.000000000000000       -10.000000000000000        0.0000000000000000     
   15.000000000000000       -10.000000000000000        0.0000000000000000     
   20.000000000000000       -10.000000000000000        0.0000000000000000     
   25.000000000000000       -10.000000000000000        0.0000000000000000     
   30.000000000000000       -10.000000000000000        0.0000000000000000     
   35.000000000000000       -10.000000000000000        0.0000000000000000     
   40.000000000000000       -10.000000000000000        0.0000000000000000     
   45.000000000000000       -10.000000000000000        0.0000000000000000     
  -5.0000000000000000        10.000000000000000        0.0000000000000000     
  -10.000000000000000        10.000000000000000        0.0000000000000000     
  -15.000000000000000        10.000000000000000        0.0000000000000000     
  -20.000000000000000        10.000000000000000        0.0000000000000000     
  -25.000000000000000        10.000000000000000        0.0000000000000000     
  -30.000000000000000        10.000000000000000        0.0000000000000000     
  -35.000000000000000        10.000000000000000        0.0000000000000000     
  -40.000000000000000        10.000000000000000        0.0000000000000000     
  -45.000000000000000        10.000000000000000        0.0000000000000000     
  -50.000000000000000        5.0000000000000000        0.0000000000000000     
  -50.000000000000000        0.0000000000000000        0.0000000000000000     
  -50.000000000000000       -5.0000000000000000        0.0000000000000000     
  -45.000000000000000       -10.000000000000000        0.0000000000000000     
  -40.000000000000000       -10.000000000000000        0.0000000000000000     
  -35.000000000000000       -10.000000000000000        0.0000000000000000     
[...]
 CELL_DATA        2884
 POINT_DATA        4085
 FIELD Result            2
 Displacement_Load_Case01            3        4085 double
                       NaN                       NaN                       NaN
                       NaN                       NaN                       NaN
                       NaN                       NaN                       NaN
                       NaN                       NaN                       NaN
                       NaN                       NaN                       NaN
                       NaN                       NaN                       NaN
                       NaN                       NaN                       NaN
                       NaN                       NaN                       NaN
                       NaN                       NaN                       NaN
                       NaN                       NaN                       NaN
                       NaN                       NaN                       NaN
                       NaN                       NaN                       NaN
                       NaN                       NaN                       NaN
                       NaN                       NaN                       NaN
                       NaN                       NaN                       NaN
                       NaN                       NaN                       NaN
                       NaN                       NaN                       NaN
                       NaN                       NaN                       NaN
                       NaN                       NaN                       NaN
                       NaN                       NaN                       NaN
                       NaN                       NaN                       NaN
                       NaN                       NaN                       NaN
                       NaN                       NaN                       NaN
                       NaN                       NaN                       NaN
                       NaN                       NaN                       NaN
                       NaN                       NaN                       NaN
                       NaN                       NaN                       NaN
                       NaN                       NaN                       NaN
                       NaN                       NaN                       NaN
                       NaN                       NaN                       NaN
                       NaN                       NaN                       NaN
                       NaN                       NaN                       NaN
                       NaN                       NaN                       NaN
                       NaN                       NaN                       NaN
                       NaN                       NaN                       NaN
                       NaN                       NaN                       NaN
                       NaN                       NaN                       NaN
                       NaN                       NaN                       NaN
                       NaN                       NaN                       NaN
                       NaN                       NaN                       NaN
                       NaN                       NaN                       NaN
                       NaN                       NaN                       NaN
                       NaN                       NaN                       NaN
                       NaN                       NaN                       NaN
                       NaN                       NaN                       NaN
                       NaN                       NaN                       NaN
                       NaN                       NaN                       NaN
                       NaN                       NaN                       NaN
                       NaN                       NaN                       NaN
                       NaN                       NaN                       NaN
                       NaN                       NaN                       NaN
                       NaN                       NaN                       NaN
                       NaN                       NaN                       NaN
                       NaN                       NaN                       NaN
                       NaN                       NaN                       NaN
                       NaN                       NaN                       NaN
                       NaN                       NaN                       NaN
                       NaN                       NaN                       NaN
                       NaN                       NaN                       NaN
                       NaN                       NaN                       NaN
                       NaN                       NaN                       NaN
                       NaN                       NaN                       NaN
                       NaN                       NaN                       NaN
                       NaN                       NaN                       NaN
                       NaN                       NaN                       NaN
                       NaN                       NaN                       NaN
                       NaN                       NaN                       NaN
                       NaN                       NaN                       NaN
                       NaN                       NaN                       NaN
                       NaN                       NaN                       NaN
                       NaN                       NaN                       NaN
                       NaN                       NaN                       NaN
                       NaN                       NaN                       NaN
                       NaN                       NaN                       NaN
                       NaN                       NaN                       NaN
                       NaN                       NaN                       NaN
                       NaN                       NaN                       NaN
                       NaN                       NaN                       NaN
                       NaN                       NaN                       NaN
                       NaN                       NaN                       NaN
                       NaN                       NaN                       NaN
                       NaN                       NaN                       NaN
                       NaN                       NaN                       NaN
                       NaN                       NaN                       NaN
                       NaN                       NaN                       NaN
                       NaN                       NaN                       NaN
                       NaN                       NaN                       NaN
                       NaN                       NaN                       NaN
                       NaN                       NaN                       NaN
                       NaN                       NaN                       NaN
                       NaN                       NaN                       NaN
                       NaN                       NaN                       NaN
                       NaN                       NaN                       NaN
                       NaN                       NaN                       NaN
                       NaN                       NaN                       NaN
                       NaN                       NaN                       NaN
                       NaN                       NaN                       NaN
                       NaN                       NaN                       NaN
                       NaN                       NaN                       NaN
                       NaN                       NaN                       NaN
                       NaN                       NaN                       NaN
                       NaN                       NaN                       NaN
                       NaN                       NaN                       NaN
                       NaN                       NaN                       NaN
                       NaN                       NaN                       NaN
                       NaN                       NaN                       NaN
                       NaN                       NaN                       NaN
                       NaN                       NaN                       NaN
                       NaN                       NaN                       NaN
                       NaN                       NaN                       NaN
                       NaN                       NaN                       NaN
                       NaN                       NaN                       NaN
                       NaN                       NaN                       NaN
                       NaN                       NaN                       NaN
                       NaN                       NaN                       NaN
                       NaN                       NaN                       NaN
                       NaN                       NaN                       NaN
                       NaN                       NaN                       NaN
                       NaN                       NaN                       NaN
                       NaN                       NaN                       NaN
                       NaN                       NaN                       NaN
                       NaN                       NaN                       NaN
                       NaN                       NaN                       NaN
                       NaN                       NaN                       NaN
                       NaN                       NaN                       NaN
                       NaN                       NaN                       NaN
                       NaN                       NaN                       NaN
                       NaN                       NaN                       NaN
                       NaN                       NaN                       NaN
                       NaN                       NaN                       NaN
                       NaN                       NaN                       NaN
                       NaN                       NaN                       NaN
                       NaN                       NaN                       NaN
                       NaN                       NaN                       NaN
                       NaN                       NaN                       NaN
                       NaN                       NaN                       NaN
                       NaN                       NaN                       NaN
                       NaN                       NaN                       NaN
                       NaN                       NaN                       NaN
                       NaN                       NaN                       NaN
                       NaN                       NaN                       NaN
                       NaN                       NaN                       NaN
                       NaN                       NaN                       NaN
                       NaN                       NaN                       NaN
                       NaN                       NaN                       NaN
                       NaN                       NaN                       NaN
                       NaN                       NaN                       NaN
                       NaN                       NaN                       NaN
                       NaN                       NaN                       NaN
                       NaN                       NaN                       NaN
                       NaN                       NaN                       NaN
                       NaN                       NaN                       NaN
                       NaN                       NaN                       NaN
                       NaN                       NaN                       NaN
                       NaN                       NaN                       NaN
                       NaN                       NaN                       NaN
                       NaN                       NaN                       NaN
                       NaN                       NaN                       NaN
                       NaN                       NaN                       NaN
                       NaN                       NaN                       NaN
                       NaN                       NaN                       NaN
                       NaN                       NaN                       NaN
                       NaN                       NaN                       NaN
                       NaN                       NaN                       NaN
                       NaN                       NaN                       NaN
                       NaN                       NaN                       NaN
                       NaN                       NaN                       NaN
                       NaN                       NaN                       NaN
                       NaN                       NaN                       NaN
                       NaN                       NaN                       NaN
                       NaN                       NaN                       NaN
                       NaN                       NaN                       NaN
                       NaN                       NaN                       NaN
                       NaN                       NaN                       NaN
                       NaN                       NaN                       NaN
                       NaN                       NaN                       NaN
                       NaN                       NaN                       NaN
                       NaN                       NaN                       NaN
                       NaN                       NaN                       NaN
                       NaN                       NaN                       NaN
                       NaN                       NaN                       NaN
                       NaN                       NaN                       NaN
                       NaN                       NaN                       NaN
                       NaN                       NaN                       NaN
                       NaN                       NaN                       NaN
                       NaN                       NaN                       NaN
                       NaN                       NaN                       NaN
                       NaN                       NaN                       NaN
                       NaN                       NaN                       NaN
                       NaN                       NaN                       NaN
                       NaN                       NaN                       NaN
                       NaN                       NaN                       NaN
                       NaN                       NaN                       NaN
                       NaN                       NaN                       NaN
                       NaN                       NaN                       NaN
                       NaN                       NaN                       NaN
                       NaN                       NaN                       NaN
                       NaN                       NaN                       NaN
                       NaN                       NaN                       NaN
                       NaN                       NaN                       NaN
                       NaN                       NaN                       NaN
                       NaN                       NaN                       NaN
                       NaN                       NaN                       NaN
                       NaN                       NaN                       NaN
                       NaN                       NaN                       NaN
                       NaN                       NaN                       NaN
                       NaN                       NaN                       NaN
                       NaN                       NaN                       NaN
                       NaN                       NaN                       NaN
                       NaN                       NaN                       NaN
                       NaN                       NaN                       NaN
                       NaN                       NaN                       NaN
                       NaN                       NaN                       NaN
                       NaN                       NaN                       NaN
                       NaN                       NaN                       NaN
                       NaN                       NaN                       NaN
                       NaN                       NaN                       NaN
                       NaN                       NaN                       NaN
                       NaN                       NaN                       NaN
                       NaN                       NaN                       NaN
                       NaN                       NaN                       NaN
                       NaN                       NaN                       NaN
                       NaN                       NaN                       NaN
                       NaN                       NaN                       NaN
                       NaN                       NaN                       NaN
                       NaN                       NaN                       NaN
                       NaN                       NaN                       NaN
                       NaN                       NaN                       NaN
                       NaN                       NaN                       NaN
                       NaN                       NaN                       NaN
                       NaN                       NaN                       NaN
                       NaN                       NaN                       NaN
                       NaN                       NaN                       NaN
                       NaN                       NaN                       NaN
                       NaN                       NaN                       NaN
                       NaN                       NaN                       NaN
                       NaN                       NaN                       NaN
                       NaN                       NaN                       NaN
                       NaN                       NaN                       NaN
                       NaN                       NaN                       NaN
                       NaN                       NaN                       NaN
                       NaN                       NaN                       NaN
                       NaN                       NaN                       NaN
                       NaN                       NaN                       NaN
                       NaN                       NaN                       NaN
                       NaN                       NaN                       NaN
                       NaN                       NaN                       NaN
                       NaN                       NaN                       NaN
                       NaN                       NaN                       NaN
                       NaN                       NaN                       NaN
                       NaN                       NaN                       NaN