# vtk DataFile Version 3.0
 Bridge                                                                          
ASCII
DATASET UNSTRUCTURED_GRID
 POINTS        4085 double
   2.8223251037086436E-002   33323826432.225037       -1.9228613271493816E-002
  -8.0342319446339430E-008   23329921663.648033       -1.5249096469516709E-002
  -2.5305511866298136E-006  -1.7886494786730533E-018  -6.4551678002568849E-002
  -6.8930111630515559E-003   42366614482.324768       -4.1336802097818579E-002
   8.1161012886829895E-003  -4.3056533223940325E-021  -1.6000974536247648E-002
  -1.2842869759913108E-002  -1.6852806538954893E-003 -0.10185060597798172     
  -5.4465794770272611E-011   33317889343.390724       -3.4750773284927740E-002
  -1.8575532143391530E-012   23329921663.648033       -7.4000388140354811E-002
   7.0631699289611374E-003  -1.7889682074718341E-018 -0.15402582861297451     
  -9.6971725979278344E-003   42393389379.004868       -4.1903927633686134E-003
   8.4930973384850054E-003  -5.2866305332756822E-021  -7.4432435509200728E-002
  -1.5614881109802443E-010  -2.0692460574296442E-003  -6.9953322169914151E-002
   3.2931466481864860E-011   9497245747.0621624        5.2779576072399569E-003
   1.6226827523415129E-003   9447322729.4018917       -8.7540383430535482E-002
   1.2519409730775156E-002  -6.2759926785961577E-018 -0.16191139894313020     
   6.6856809660410757E-002   24982163334.978745       -5.0336811491309315E-003
  -3.9147968355089363E-010  -4.9746870457942075E-020  -8.8807758898565375E-002
  -4.8317099351128002E-010  -7.8848677274219632E-003  -7.6062270562492193E-002
  -4.0331878525274395E-002   9465822053.7138767        1.9923264921415391E-002
  -5.3878099161992835E-002   9447322729.4018917       -3.8704331802787852E-002
  -3.1001627295280554E-002  -6.2968270940615227E-018  -9.2617699507921397E-002
  -5.2579495237067689E-011   25036595534.853054       -3.7640897468631520E-003
  -1.3353323373851891E-009  -3.6990494519788598E-020  -3.8585912473068473E-002
   3.8422526104835819E-002  -5.8629850234909768E-003  -6.3746748758215926E-002
   5.4410741895401647E-002   33248946432.225037       -1.0087813919135427E-003
   1.2727975439578229E-002   23329921663.648033       -2.4700900408800900E-003
  -3.6325994663098376E-010  -1.7926776987321776E-018  -7.3488717706693589E-003
  -9.1204268367112503E-009   42324589127.686295       -1.5281850729773141E-003
  -5.1349265544631491E-002   0.0000000000000000        2.1790966544061856E-003
  -6.4683667146921017E-002   0.0000000000000000       -7.2671039556336881E-003
  -4.1598371585975548E-002   33267445756.537022       -3.3371930264946420E-002
   2.2581407242727592E-010   23329921663.648033       -1.3537415146093836E-002
   5.6687913777285382E-009  -1.7916808285072012E-018 -0.19815562147027127     
   4.7093986758077834E-002   42490990462.740585       -1.6996251600686754E-002
   6.8113257422649259E-002   4.2621083586962156E-021  -1.1645993024599096E-002
   1.0630293471864284E-002   1.6682366702303786E-003 -0.21019752308024436     
  -2.1072809500433179E-009   9497245747.0621624       -4.9997856117841154E-002
  -5.2890672811572781E-008   9447322729.4018917       -2.7082884678791552E-002
  -6.8287814419056930E-002  -6.2759926785961577E-018 -0.41636056007984168     
  -8.5210464711039755E-002   24982163334.978745       -4.8040898340799970E-002
  -6.3852403115880765E-002   4.9746870457942075E-020  -3.0188892080657653E-002
   1.5418504167374228E-008   7.8848677274219632E-003 -0.42437129317027172     
   3.8691029669654270E-007   9516265640.5675793        3.1200585106473677E-002
   5.9173247711872858E-002   9447322729.4018917       -1.5471571463954654E-002
   8.9947235042253368E-002  -6.2634490278726206E-018 -0.52931356676999575     
   1.9264961232101918E-003   24938870437.233002        2.5079799143189779E-002
   3.9509529700956218E-009   4.5708231028832230E-020  -2.3036174631017141E-002
   1.0471130895460053E-007   7.2447442904269794E-003 -0.53191340394183273     
  -9.9612376054077745E-002   197143647221.45343       0.12019698137475977     
 -0.12469634070246273        197067591381.74017       -6.8045235480108527E-003
 -0.12937406246675648        9.6749180594693792E-018 -0.29708308965177299     
   5.0107728944032409E-007   216106115620.07053       0.11912681399824128     
   1.2576293864837970E-005   4.8390502739700518E-017  -5.1943344089550548E-003
   7.3771839506815887E-002   2.8486842356585299E-004 -0.29795404928355956     
  0.13109764097036003        197142536833.44492        1.1605234004920576E-003
  -3.7678319033815348E-002   197067591381.74017       -7.5220055408158125E-004
   6.8534763708859026E-007  -9.6749725525948558E-018  -8.0192432071757357E-004
   1.8533419042159100E-005   216090558741.09775        1.0963844153139305E-003
 -0.17800329594645756       -4.8391086864237050E-017   4.5902582959551279E-004
 -0.25148709034774602        2.2451657519383740E-004  -8.5237265936462269E-004
 -0.68872776373823208        9521092341.3933392       -1.1248550973075669E-004
   3.2607014631797125E-005   9447322729.4018917        2.0745621728582517E-004
   8.9443640055762263E-004  -6.2602737835297522E-018  -2.0598707163098752E-004
  -3.9922586611810432E-002   24896778295.517067       -1.1769064117645269E-004
  -5.9924463302665695E-002  -2.9330085223019847E-020  -1.3423405629045646E-004
  -1.5724526970261065E-002  -4.6488118808005090E-003  -2.2862549456967941E-004
   3.0621109576672437E-008   9447322729.4018917       -1.6581842537005311E-002
  -1.5412286644090987E-006   9447322729.4018917       -1.5199982032310284E-002
   2.1756342926720008E-002  -6.3091572589014525E-018 -0.21438873452129129     
   2.7417285537867282E-002   24870426999.829346      -0.13265375108964356     
   1.5227458609760382E-002   0.0000000000000000       -1.0439936083520012E-002
  -1.7332715230659617E-008   0.0000000000000000       -2.0541924832605505E-002
  -4.3517723824003405E-007   33248946432.225037       -1.5310817007576798E-002
  -3.6982198963182333E-002   23329921663.648037      -0.32274398942613969     
  -3.6523629854365913E-002  -1.7926776987321776E-018   2.1008777657549479E-003
   2.0009565630042022E-002   42324589127.686302       -2.2599462453830972E-003
  -5.1830216015646728E-008   0.0000000000000000       -2.5962735331038423E-002
  -1.3013285296832572E-006   0.0000000000000000       -1.5576610265596277E-002
   2.6829238283433299E-002   33248946432.225037      -0.25640125446759970     
   3.4910046046576070E-002   23329921663.648037      -0.13259028921791005     
   2.1181498407243416E-002  -1.7926776987321776E-018   1.0793225481342605E-002
  -1.5253229663261169E-007   42324589127.686302       -3.4603444961190805E-002
  -3.8294718965105966E-006   0.0000000000000000       -2.1552124043911193E-002
  -4.9144653883892615E-002   0.0000000000000000       -2.0751580809070584     
  -4.9154236994842858E-002   9447322729.4018917       0.26858108143707854     
   3.3402762649058323E-002   9447322729.4018917        1.4912785376937637E-002
  -4.6328228987163221E-007  -6.3091572589014525E-018  -3.2193762392709990E-002
  -1.1635559244080069E-005   24870426999.829346       -2.5588229577845820E-002
   3.4151735126390102E-002   0.0000000000000000       -8.1755368004569675     
   4.7318826298259738E-002   0.0000000000000000       0.34592683105145555     
   3.3749141946583315E-002   9447322729.4018917        6.1307967257278738E-004
  -1.3695657574320956E-006   9447322729.4018917       -3.1250012510833390E-002
  -3.4317476964389578E-005  -6.3091572589014525E-018  -3.0021557619530737E-002
  -7.2146397833689729E-002   24870426999.829346       -14.231107213144330     
  -7.4767601674416137E-002   0.0000000000000000       0.26016939254536586     
   7.4344834979993793E-002   0.0000000000000000        1.6323674886555804E-002
  -4.3135394226198514E-006   33248946432.225037       -3.0763026777509261E-002
  -1.0962210929263556E-004   23329921663.648037       -3.5062811245184698E-002
   4.4066872160063934E-002  -1.7926776987321776E-018  -17.517100823778954     
   7.2444543003548412E-002   42324589127.686302        6.8502826350694893E-002
   7.2969349929593336E-002   0.0000000000000000        4.6724968816084307E-004
  -1.3902637845539018E-005   0.0000000000000000       -3.0471899018857062E-002
  -3.2598509738833128E-004   33248946432.225037       -4.0594659329329541E-002
 -0.13341992651422704        23329921663.648037       -16.787208057831975     
 -0.17215647693091199       -1.7926776987321776E-018 -0.14111994060513122     
  0.47815342094143459        42324589127.686302        1.8201343866107153E-002
  -5.0154097091826212E-005   0.0000000000000000       -3.0355212427356625E-002
  -1.6536948377664528E-003   0.0000000000000000       -4.6605705203300145E-002
  -2.3692702833226876E-002   40922618320.834846       -12.241951973453553     
  0.41117192750040471        36327840216.166092      -0.31323331474347366     
  -1.2469215109959002       0.33508158795757509        7.0208574991931390E-004
   5.3675989956038949E-009   38208083898.659149       -3.0352096321132831E-002
   2.6171669288698737E-004  0.25665648358770299       -5.3075344019366713E-002
   0.0000000000000000       0.34265734566787781       -5.5611438009459615     
   0.0000000000000000        40922618320.834831      -0.35443352833938441     
   0.0000000000000000        36327840216.166077        2.0586062814940072E-002
   0.0000000000000000      -0.33508158795757520       -3.0520882626873261E-002
   0.0000000000000000        38208083898.659142       -5.9805220197270005E-002
   0.0000000000000000      -0.25665648358770288       0.12960055938361248     
   0.0000000000000000       0.34265734566787787      -0.21531013541542540     
   0.0000000000000000        95004355251.654694        1.0164534563619485E-003
   0.0000000000000000        84935127890.506027       -3.1341545798486532E-002
   0.0000000000000000       0.32555645902227587       -6.6531536976000644E-002
   0.0000000000000000        83989175856.166092        2.0898283423548598     
[...]
 CELL_DATA        2884
 POINT_DATA        4085
 FIELD Result            2
 Displacement_Load_Case01            3        4085 double
  -1.9228613271493816E-002  -1.5249096469516709E-002  -6.4551678002568849E-002
  -4.1336802097818579E-002  -1.6000974536247648E-002 -0.10185060597798172     
  -3.4750773284927740E-002  -7.4000388140354811E-002 -0.15402582861297451     
  -4.1903927633686134E-003  -7.4432435509200728E-002  -6.9953322169914151E-002
   5.2779576072399569E-003  -8.7540383430535482E-002 -0.16191139894313020     
  -5.0336811491309315E-003  -8.8807758898565375E-002  -7.6062270562492193E-002
   1.9923264921415391E-002  -3.8704331802787852E-002  -9.2617699507921397E-002
  -3.7640897468631520E-003  -3.8585912473068473E-002  -6.3746748758215926E-002
  -1.0087813919135427E-003  -2.4700900408800900E-003  -7.3488717706693589E-003
  -1.5281850729773141E-003   2.1790966544061856E-003  -7.2671039556336881E-003
  -3.3371930264946420E-002  -1.3537415146093836E-002 -0.19815562147027127     
  -1.6996251600686754E-002  -1.1645993024599096E-002 -0.21019752308024436     
  -4.9997856117841154E-002  -2.7082884678791552E-002 -0.41636056007984168     
  -4.8040898340799970E-002  -3.0188892080657653E-002 -0.42437129317027172     
   3.1200585106473677E-002  -1.5471571463954654E-002 -0.52931356676999575     
   2.5079799143189779E-002  -2.3036174631017141E-002 -0.53191340394183273     
  0.12019698137475977       -6.8045235480108527E-003 -0.29708308965177299     
  0.11912681399824128       -5.1943344089550548E-003 -0.29795404928355956     
   1.1605234004920576E-003  -7.5220055408158125E-004  -8.0192432071757357E-004
   1.0963844153139305E-003   4.5902582959551279E-004  -8.5237265936462269E-004
  -1.1248550973075669E-004   2.0745621728582517E-004  -2.0598707163098752E-004
  -1.1769064117645269E-004  -1.3423405629045646E-004  -2.2862549456967941E-004
  -1.6581842537005311E-002  -1.5199982032310284E-002 -0.21438873452129129     
  -2.0541924832605505E-002  -1.5310817007576798E-002 -0.32274398942613969     
  -2.5962735331038423E-002  -1.5576610265596277E-002 -0.25640125446759970     
  -3.4603444961190805E-002  -2.1552124043911193E-002  -2.0751580809070584     
  -3.2193762392709990E-002  -2.5588229577845820E-002  -8.1755368004569675     
  -3.1250012510833390E-002  -3.0021557619530737E-002  -14.231107213144330     
  -3.0763026777509261E-002  -3.5062811245184698E-002  -17.517100823778954     
  -3.0471899018857062E-002  -4.0594659329329541E-002  -16.787208057831975     
  -3.0355212427356625E-002  -4.6605705203300145E-002  -12.241951973453553     
  -3.0352096321132831E-002  -5.3075344019366713E-002  -5.5611438009459615     
  -3.0520882626873261E-002  -5.9805220197270005E-002  0.12960055938361248     
  -3.1341545798486532E-002  -6.6531536976000644E-002   2.0898283423548598     
  -2.1132135403051300E-002  -7.4597331209113965E-002 -0.41559667333695050     
  -1.4006898458055608E-002  -7.4845562461747464E-002 -0.52307721845167132     
  -7.7710322189442436E-003  -7.4742349926483279E-002 -0.33251228289446239     
  -1.3987109673820278E-003  -6.7401619097965340E-002   2.1763871242244370     
  -1.7101864502286387E-003  -6.1145563078668398E-002  0.21844844170091404     
  -1.9197144612253967E-003  -5.5147053280476713E-002  -5.4786483162815891     
  -3.8593008807869455E-003  -4.8168028125219066E-002  -12.165991612568309     
  -5.9311147613789151E-003  -4.2002516887808733E-002  -16.717648265694038     
  -7.7825918045088677E-003  -3.6311210731754598E-002  -17.454028940039112     
  -9.4139356004715163E-003  -3.0806662329589111E-002  -14.174482450987817     
  -1.1091311705783606E-002  -2.5197477565005521E-002  -8.1253537015638919     
  -1.3660280531615396E-002  -1.9523392361561018E-002  -2.0314692092841771     
  -2.7146352117861521E-002  -8.0805694930244920E-002  -7.9803398827366516     
  -2.2275182215057032E-002  -8.5288305862764174E-002  -20.274132812574543     
  -1.8325708842685553E-002  -8.8716700711658075E-002  -32.143465956528658     
  -1.4684956535236693E-002  -9.1214508200795436E-002  -40.170087643145941     
  -1.1210593139207584E-002  -9.2739084334022420E-002  -42.387667889767606     
  -7.8904166802265911E-003  -9.3315861502805797E-002  -38.303345071056640     
  -4.7264815038106540E-003  -9.3030530234286049E-002  -28.877310077265332     
  -1.6663572233988006E-003  -9.2001461739558185E-002  -16.542361489743801     
   1.4913807766290038E-003  -9.0282722344650998E-002  -5.1847393471685361     
   6.3631900966500642E-004  -8.8183109943785781E-002 -0.51249076576417785     
  -2.0879367348997542E-003  -8.8606542143060657E-002 -0.67714487341361540     
  -4.4808258771509265E-003  -8.8817060310719120E-002 -0.44113574269589584     
  -6.4424828851188231E-003  -9.1264134758279464E-002  -5.0990249810580606     
  -6.8177772148349065E-003  -9.3357189286802353E-002  -16.456868543126962     
  -6.7532007912960781E-003  -9.4658291089930263E-002  -28.791950445142241     
  -6.4602426547868538E-003  -9.5054922721011820E-002  -38.218207498541688     
  -5.9899786891760270E-003  -9.4502169490727400E-002  -42.302662529075690     
  -5.3408572858346087E-003  -9.2918499889309017E-002  -40.085306291052760     
  -4.5272024010888689E-003  -9.0162608225410890E-002  -32.058814101455908     
  -3.6883492433006115E-003  -8.6066129099411331E-002  -20.189708410972578     
  -3.2426690823225846E-003  -8.0624189632447510E-002  -7.8960418562758967     
   6.0583888580630447E-003  -8.4334618380196430E-002  -4.2717857637187109     
   7.5149926074948026E-003  -8.0825158927424853E-002  -14.340481011823281     
   9.1044065997646102E-003  -7.6748438436566077E-002  -25.228708726639002     
   1.0621131807152278E-002  -7.2136420614818578E-002  -33.264375344010503     
   1.2000907865944668E-002  -6.7098927232257813E-002  -36.233415710655485     
   1.3229509141420013E-002  -6.1746831157719458E-002  -33.389194955216773     
   1.4324254788622095E-002  -5.6206759616910386E-002  -25.443756940276664     
   1.5401399632422175E-002  -5.0629951516823805E-002  -14.576261819520345     
   1.6881182965676499E-002  -4.5027948631208160E-002  -4.4245287798574537     
   9.8075846090660765E-003  -3.8620376028015303E-002 -0.51035819055806086     
   3.8504822975100215E-003  -3.8573179148874849E-002 -0.72401186033458054     
  -1.4722990931759477E-003  -3.8561625847435284E-002 -0.47651350930167613     
  -6.4193291881815542E-003  -4.4360330014493660E-002  -4.3900037211430378     
  -7.4560384101128680E-003  -5.0674742231055690E-002  -14.535997981983138     
  -7.8702762616740477E-003  -5.6761891231529700E-002  -25.397803763397508     
  -8.0461658563067313E-003  -6.2497898738308265E-002  -33.337534541953389     
  -8.1000218288638879E-003  -6.7898129752093847E-002  -36.176035208852305     
  -8.0496165009963910E-003  -7.2961655910102077E-002  -33.201318421601151     
  -7.8809932569936080E-003  -7.7672036490468693E-002  -25.159900564494233     
  -7.5284906547984330E-003  -8.2012820335858896E-002  -14.266028220686023     
  -6.7738351459004972E-003  -8.5893056897547976E-002  -4.1915493910131483     
   1.6253362613338238E-002  -3.2472004197535903E-002  -4.5108110358729636     
   1.4140721427770108E-002  -2.7192283159860432E-002  -14.762220206780112     
   1.2427397838562507E-002  -2.2158895221224783E-002  -25.729547415610202     
   1.0692497247125635E-002  -1.7384398796759064E-002  -33.761017128016562     
   8.8167788623957580E-003  -1.3020882660614644E-002  -36.664478103044345     
   6.7751771371032778E-003  -9.2004753311560345E-003  -33.713663526337918     
   4.5691882588368123E-003  -6.0573680694609626E-003  -25.642469938233418     
   2.2659681755076771E-003  -3.7695929434170450E-003  -14.650464777447812     
   1.3820284901558879E-004  -2.4228796877450894E-003  -4.3972600831557935     
  -3.5660338488075370E-003  -9.2274913366665646E-004 -0.45127851128085072     
  -4.4881929051445541E-003   9.5940155901978101E-005 -0.68686653721762003     
  -4.9275045686910726E-003   9.8980014182480308E-004 -0.43819426350959828     
  -4.4707179789601282E-003   1.7674474727570700E-004  -4.3943339850522456     
  -5.5730738208788740E-003  -2.0985780557101559E-003  -14.644629240153675     
  -6.1344844495112450E-003  -4.8881908962011434E-003  -25.633771849301418     
  -6.5330464529457146E-003  -8.1669948377298129E-003  -33.702070188237130     
  -6.8344571545942232E-003  -1.2006813302770192E-002  -36.650009057781531     
  -7.0388742358587792E-003  -1.6409411113731853E-002  -33.743665685604405     
  -7.1204598741622226E-003  -2.1375547099460750E-002  -25.709307574268824     
  -6.9602053225755432E-003  -2.6917695671891839E-002  -14.739110574486052     
  -6.1736004845836948E-003  -3.2908693474974444E-002  -4.4848009707000829     
  -4.6960809242749006E-003  -7.7142388029854709E-004  -4.4070329840221820     
  -7.7432869491854857E-003  -7.0765021687083421E-004  -14.662536285120204     
  -1.0505606703278363E-002  -1.0124447839358459E-003  -25.652426981929079     
  -1.3214771123469209E-002  -1.5982095522395754E-003  -33.719623004094380     
  -1.5978470305101893E-002  -2.4955777697460530E-003  -36.667790175453483     
  -1.8820559001212420E-002  -3.7666082079315772E-003  -33.765387791159014     
  -2.1749109165527022E-002  -5.4398673226759720E-003  -25.742090498656857     
  -2.4824803991340308E-002  -7.4964917771323213E-003  -14.792224251869438     
  -2.8361664785930767E-002  -9.9901476602324707E-003  -4.5711513648206319     
  -2.6091323577330003E-002  -1.3047369400232628E-002 -0.63072246959077394     
  -2.2815614896703869E-002  -1.2568225357810783E-002 -0.86485695643783977     
  -1.9895562986898537E-002  -1.2100726803279331E-002 -0.62814273311677249     
  -1.5541007894493308E-002  -8.4003422056243317E-003  -4.5820051344507444     
  -1.4394836099043103E-002  -5.5054081333931219E-003  -14.801845361028489     
  -1.3363356945133196E-002  -3.1596550814506439E-003  -25.750514180316305     
  -1.2315103336531800E-002  -1.3738206500261989E-003  -33.772584545141711     
  -1.1189831658426326E-002  -8.6507217789577283E-005  -36.673784711098513     
  -9.9776853829802274E-003   7.5734282524588632E-004  -33.724395042429542     
  -8.6554930521139627E-003   1.1784558135412510E-003  -25.655992653990264     
  -7.1136459006752419E-003   1.2070332147071101E-003  -14.664883300726391     
  -5.0116594513644969E-003   9.8742759820026225E-004  -4.4081706826866283     
  -3.1674975780955662E-002  -1.7124368280890225E-002  -4.6056898918378666     
  -3.1451513759081708E-002  -1.9729566950692196E-002  -14.867671060887972     
  -3.1686730212526298E-002  -2.1975725151687758E-002  -25.863024467434293     
  -3.2053112312808843E-002  -2.3916741608649185E-002  -33.934367144573486     
  -3.2458739506579223E-002  -2.5507158334913294E-002  -36.885716437557505     
  -3.2863483030542089E-002  -2.6662164927853345E-002  -33.985258410711936     
  -3.3340640704321134E-002  -2.7153458285410711E-002  -25.963021495687880     
  -3.4453175064819555E-002  -2.6616497299620141E-002  -15.013085713211581     
  -3.8202053937803092E-002  -2.5367695593610774E-002  -4.7911774009577837     
  -3.0005643923644073E-002  -2.7992032420232349E-002 -0.79941799247959422     
  -2.8121195597646569E-002  -2.8811583527312088E-002  -1.0086758352352234     
  -2.9370498393857473E-002  -2.9544762584885805E-002 -0.79791526604129615     
  -3.5910876478004262E-002  -3.1200688186790650E-002  -4.7995957953541133     
  -3.1449965417874322E-002  -2.8928808774748127E-002  -15.021905310215878     
  -2.9421097493937912E-002  -2.6937713296198425E-002  -25.972249291802640     
  -2.7860295887408879E-002  -2.5466891512099955E-002  -33.994884778023895     
  -2.6204055158800633E-002  -2.4076347005437121E-002  -36.895754157061582     
  -2.4379235372203347E-002  -2.2453386173186332E-002  -33.944800070369645     
  -2.2427966307392837E-002  -2.0428466377740932E-002  -25.873872331127071     
  -2.0441809549776660E-002  -1.7912602424502364E-002  -14.878910229035604     
  -1.8565798012133265E-002  -1.4915529690299169E-002  -4.6173487859999476     
  -3.2049650989921227E-002  -2.8622110517617011E-002  -4.8197578358758077     
  -2.2126948397166991E-002  -2.6660594305652621E-002  -15.074777132882165     
  -1.4824763820295874E-002  -2.4907506489996432E-002  -26.061054347497834     
  -8.1429042842210940E-003  -2.3669630352060825E-002  -34.121432464122634     
  -1.5210087909671977E-003  -2.2576761069668320E-002  -37.060652881123005     
   5.1100861033915174E-003  -2.1402997773854519E-002  -34.147173444267899     
   1.1717087932948856E-002  -2.0084435568964724E-002  -26.111767976531798     
   1.8272487490600550E-002  -1.8633245779825645E-002  -15.148834302164850     
   2.4766523438000072E-002  -1.7083002461625450E-002  -4.9148734515189405     
   2.9617240597414940E-002  -1.7381451350002314E-002 -0.82624795419471009     
   2.8107194684477765E-002  -1.9280709971147329E-002 -0.98965490292503355     
   2.6602702202761931E-002  -2.1166788087414522E-002 -0.82427192140973560     
   1.8809849787771383E-002  -2.4667382151542402E-002  -4.9180124308449642     
   1.2628147220188330E-002  -2.6232916158896120E-002  -15.152517624343512     
   6.5210027717134186E-003  -2.7705838547669105E-002  -26.115992352446369     
   4.9571107555375880E-004  -2.9053334665068764E-002  -34.151939294014333     
  -5.4201251220521510E-003  -3.0221409959841964E-002  -37.065962865402298     
  -1.1193304202447334E-002  -3.1079334562671142E-002  -34.127280769449158     
  -1.6893427162894145E-002  -3.1334492580707286E-002  -26.067450034731991     
  -2.3080162983407863E-002  -3.0557741371542053E-002  -15.081707730442766     
  -3.1715508028750290E-002  -2.8998334244325633E-002  -4.8272397509989853     
   3.7574301391483073E-002  -1.3809454738119101E-002  -4.9162673542193209     
   4.3887901012870108E-002  -1.2138872602018461E-002  -15.142810274682365     
   5.0134449272434677E-002  -1.0477670227991400E-002  -26.091746888884956     
   5.6288105704924325E-002  -8.8561425079990656E-003  -34.108612553399276     
   6.2289971860863755E-002  -7.3514850936223048E-003  -37.001365885759562     
   6.8071811914728830E-002  -6.1966353799694463E-003  -34.041214969396819     
   7.3776669392549524E-002  -5.9559147396810782E-003  -25.962206678745897     
   8.0553604189822728E-002  -7.4738149340609992E-003  -14.961546856822817     
   9.2434859449294859E-002  -1.0204426023210523E-002  -4.6990740054599165     
   8.0598272383838279E-002  -6.3685239292207881E-003 -0.46892298618343053     
   7.6791504285554424E-002  -5.9525974694891320E-003 -0.56420681841802156     
   7.9413095312176760E-002  -5.5599592952628955E-003 -0.46782369692395342     
   8.9921459688729513E-002  -2.9757914411760416E-003  -4.7001178349899515     
   7.7071025618110606E-002  -7.4649958798314806E-003  -14.962764159201486     
   6.9515521442208753E-002  -1.1135838507992539E-002  -25.963596954556479     
   6.3159325541720074E-002  -1.3392418094253273E-002  -34.042778203821833     
   5.6853185178130872E-002  -1.5029303030484428E-002  -37.003102699045016     
   5.0454786498588283E-002  -1.6546646195787690E-002  -34.110521694807716     
   4.4032537548320164E-002  -1.8113456051155243E-002  -26.093830270872502     
   3.7645435276282516E-002  -1.9743373478258854E-002  -15.145065266832207     
   3.1321980221902399E-002  -2.1403436423645235E-002  -4.9186975298154989     
   8.9411281859079067E-002  -3.4939064218781311E-003  -4.6732701161177435     
   7.4507504772725663E-002  -6.4475404425922240E-003  -14.885795830476690     
   6.4704794924687559E-002  -8.3362388693286413E-003  -25.819248447137369     
   5.5970630920407188E-002  -8.6198924976661762E-003  -33.820321521013739     
   4.7162085738937223E-002  -8.1520435210753698E-003  -36.698858043269517     
   3.8160982218273465E-002  -7.5015739798890676E-003  -33.727286697213700     
   2.9099479461875008E-002  -6.8661204076711354E-003  -25.641649528208088     
   2.0130758689013702E-002  -6.1083534818310425E-003  -14.640436448698692     
   1.1191874133613139E-002  -4.8263425941092453E-003  -4.3856051130515192     
   1.4344193522049440E-003  -3.4286345227509536E-004  -2.5796630427438920E-003
   1.5189266249169774E-003  -1.3837340312764342E-004  -2.5126105003132455E-003
   1.4013084556477090E-003   6.2430328225457525E-005  -2.5859636977862131E-003
   1.0362953991178519E-002   3.9608446168796097E-003  -4.3857387609298026     
   1.8702043703250057E-002   4.4696069576063259E-003  -14.640651126250184     
   2.7200975053292459E-002   4.1855308033506913E-003  -25.641947276071804     
   3.5921560447465091E-002   3.5777405685274706E-003  -33.727665583186131     
   4.4712703684498992E-002   2.8466902388438182E-003  -36.699319912337160     
   5.3442063670078400E-002   1.8608355313497079E-003  -33.820864596326771     
   6.2227096221752001E-002   1.1694478287314275E-004  -25.819874460734937     
   7.2210807156874599E-002  -3.1871739767810421E-003  -14.886503062251684     
   8.7488993054113617E-002  -7.4597474136800833E-003  -4.6740603754950172     
  -1.4212450402059854E-002  -1.1325711192955860E-002  -5.5338427913973627     
  -1.2227740003261543E-002  -6.9790119772851749E-003  -16.392396669878803     
  -1.1160477335957816E-002  -3.6233010466556271E-003  -27.605242023456213     
  -1.0170555901460083E-002  -1.3155941076029407E-003  -35.594822046259580     
  -8.9991549852599453E-003   2.0470776400350807E-004  -38.251385523125322     
  -7.6194215604174298E-003   1.1498034843644884E-003  -34.923193201693252     
  -6.0630665847010807E-003   1.6454207302269248E-003  -26.426708456476423     
  -4.3652646355565377E-003   1.7342836632167401E-003  -15.036276869790242     
  -2.4933072175491009E-003   1.3922235282985004E-003  -4.4942882013168566     
  -2.2857331708476069E-004   9.9059437675223146E-005  -8.2189610299130528E-004
  -2.7930396110662170E-004   4.2875075177523236E-005  -8.3700665079373406E-004
  -2.4710212697543296E-004  -1.7827403598851507E-005  -8.8546647757749969E-004
  -2.8569224610043476E-003  -9.0413626984565173E-004  -4.4979492029947474     
  -5.5428931438847645E-003  -1.0342171709146995E-003  -15.043752317997058     
  -8.4382383746460059E-003  -1.2517653011261394E-003  -26.437855005399616     
  -1.1555085292908867E-002  -1.7555628996882083E-003  -34.938122731197389     
  -1.4856740590602373E-002  -2.6808660675544486E-003  -38.270016590230732     
  -1.8311200647958634E-002  -4.0823376618549772E-003  -35.617206408280758     
  -2.1943435821428766E-002  -5.9289029484635445E-003  -27.631357045080069     
  -2.6013526016464044E-002  -8.1046683556942212E-003  -16.422236275073928     
  -3.1528147649582068E-002  -1.0809652951366407E-002  -5.5674408632748573     
  -1.7096327200810373E-002  -1.9272786375619459E-002  -2.1904641469090702     
  -2.0960937429560067E-002  -2.0298894563933512E-002  -2.3054678785093534     
  -2.7536698930050715E-002  -2.1655701320851279E-002  -2.2381537507854734     
  -1.6183248589723597E-002  -2.4934658291752156E-002  -8.2964914893651986     
  -2.1225750515171470E-002  -2.5289964000183844E-002  -8.4229045447435222     
  -2.6976737166117586E-002  -2.5697491184854225E-002  -8.3499337626188623     
  -1.4947506441435370E-002  -3.0434175496528066E-002  -14.353779124951483     
  -2.0520982739067082E-002  -3.0275613698662739E-002  -14.488076269513035     
  -2.6108181638678476E-002  -3.0187350703933954E-002  -14.412998403410690     
  -1.3543702872540904E-002  -3.5843416410663499E-002  -17.645907259110533     
  -1.9457018938225008E-002  -3.5487212813891007E-002  -17.791556828483447     
  -2.5269612602720835E-002  -3.5228884629166290E-002  -17.710916542352823     
  -1.2034295938796385E-002  -4.1462749602581658E-002  -16.918726849982693     
  -1.8318984323792538E-002  -4.1034508161528857E-002  -17.071459345628590     
  -2.4529442454188179E-002  -4.0738307611574674E-002  -16.989622578762326     
  -1.0404634810753936E-002  -4.7537283309512061E-002  -12.380999501730711     