# vtk DataFile Version 3.0
 Patch Test                                                                      
ASCII
DATASET UNSTRUCTURED_GRID
 POINTS          16 double
   1.0000000000000000        0.0000000000000000        0.0000000000000000     
   1.0000000000000000        1.0000000000000000        0.0000000000000000     
   0.0000000000000000        1.0000000000000000        0.0000000000000000     
   0.0000000000000000        0.0000000000000000        0.0000000000000000     
  0.59999999999999998       0.25000000000000000       0.29999999999999999     
  0.59999999999999998       0.69999999999999996       0.40000000000000002     
  0.34999999999999998       0.65000000000000002       0.29999999999999999     
  0.20000000000000001       0.20000000000000001       0.20000000000000001     
  0.75000000000000000       0.20000000000000001       0.59999999999999998     
  0.59999999999999998       0.80000000000000004       0.75000000000000000     
  0.29999999999999999       0.59999999999999998       0.75000000000000000     
  0.34999999999999998       0.34999999999999998       0.59999999999999998     
   1.0000000000000000        0.0000000000000000        1.0000000000000000     
   1.0000000000000000        1.0000000000000000        1.0000000000000000     
   0.0000000000000000        1.0000000000000000        1.0000000000000000     
   0.0000000000000000        0.0000000000000000        1.0000000000000000     
 CELLS            7          63
           8           0           1           2           3           4           5           6           7
           8           0           3          15          12           4           7          11           8
           8           4           5           9           8           0           1          13          12
           8           5           6          10           9           1           2          14          13
           8           3           2          14          15           7           6          10          11
           8           4           5           6           7           8           9          10          11
           8           8           9          10          11          12          13          14          15
 CELL_TYPES            7
          12          12          12          12          12          12          12
 CELL_DATA           7
 POINT_DATA          16
 FIELD Result            2
 Displacement_Load_Case01            3          16 double
   1.0000000016941080E-003   0.0000000000000000        0.0000000000000000     
   1.0000000015840782E-003   2.0000000048838421E-003  -4.5636912218011139E-012
   0.0000000000000000        2.0000000016489770E-003   0.0000000000000000     
   0.0000000000000000        0.0000000000000000        0.0000000000000000     
   6.0000000121646839E-004   5.0000000445873678E-004   9.0000000439507998E-004
   6.0000000175517787E-004   1.4000000004343210E-003   1.2000000022866009E-003
   3.5000000371007397E-004   1.3000000000057304E-003   9.0000000437789939E-004
   2.0000000346863460E-004   4.0000000434769204E-004   6.0000000445913754E-004
   7.5000000216382035E-004   4.0000000110143954E-004   1.7999999986063754E-003
   6.0000000372594387E-004   1.5999999981316582E-003   2.2499999991792276E-003
   3.0000000579442524E-004   1.1999999989675703E-003   2.2500000033053302E-003
   3.5000000474379211E-004   7.0000000270628278E-004   1.8000000014930411E-003
   1.0000000067173034E-003  -4.3181368853881241E-012   3.0000000003901845E-003
   1.0000000090548537E-003   2.0000000014830533E-003   3.0000000004622115E-003
   8.3400092387719837E-012   2.0000000051939954E-003   3.0000000136414279E-003
   2.3980612051010943E-012   9.0345808091696345E-013   3.0000000058793149E-003
 Stress_Load_Case01            6          16 double
   3.2000000265113280        4.0000000360616941        4.8000000325147605       -2.0135036435398241E-009   7.1268083808475131E-009   1.7168297645068182E-009
   3.2000000237206763        4.0000000235137350        4.8000000300878511       -1.2641257322017964E-010   3.9588995390655784E-009   9.4188641466597905E-009
   3.2000000274740064        4.0000000376075082        4.8000000414395352        3.8120561628413820E-009   1.2238006193577077E-008   1.9101260567848761E-009
   3.2000000257719918        4.0000000291513800        4.8000000296801488        8.2767830762458450E-009   1.1680725340017707E-008   1.2262193063380404E-008
   3.1999999970937427        4.0000000016034392        4.7999999973729093       -1.9141721696674169E-009  -6.5329981280457240E-010   1.4112078824462227E-010
   3.1999999951459452        3.9999999984815151        4.7999999958865667        3.8319086539406808E-009  -6.7308519795679407E-009  -3.0912746364187912E-009
   3.1999999958766208        3.9999999957114190        4.8000000017437809        1.9167188226873693E-010  -4.3813855911922596E-009   1.1478052777831899E-009
   3.2000000070741859        4.0000000081976568        4.8000000103583078        5.1077351791939278E-009   5.5318549555887222E-009   5.6615765439678106E-009
   3.2000000025297255        4.0000000045770614        4.7999999967413993       -4.5463914966579394E-009  -7.1522737770897785E-009   1.2100675179813967E-009
   3.2000000014198364        4.0000000105819939        4.8000000078590075        3.1702292050797309E-009   5.1116168804528602E-009  -2.6033904935119019E-009
   3.1999999985391510        3.9999999983826009        4.8000000059245211       -2.0959061739023161E-009   5.5471353093786516E-009  -5.3742316702357272E-009
   3.1999999939995294        3.9999999923698835        4.7999999942270826        6.1185772757163803E-010  -1.9010779751940181E-009  -3.4307252095904076E-009
   3.2000000236879487        4.0000000316236992        4.8000000236376081       -1.1055406415212830E-010  -5.7427257245331057E-010   2.2518182758440159E-009
   3.2000000279238692        4.0000000373009179        4.8000000353532002        1.7979723770858249E-009   7.9107838509759096E-009   1.5660030668297745E-009
   3.2000000268190689        4.0000000235120439        4.8000000321682421        3.4809517655834411E-009   8.6735968534548391E-009   3.5172974819219593E-009
   3.2000000291859720        4.0000000376192872        4.8000000361630129        7.8092657672338433E-010   1.3287141364392899E-008   4.2123603590253906E-009
