# vtk DataFile Version 3.0
 SHELL8Q                                                                         
ASCII
DATASET UNSTRUCTURED_GRID
 POINTS           8 double
   0.0000000000000000        0.0000000000000000        0.0000000000000000     
   20.000000000000000        0.0000000000000000        0.0000000000000000     
   20.000000000000000        30.000000000000000        0.0000000000000000     
   0.0000000000000000        30.000000000000000        0.0000000000000000     
   10.000000000000000        0.0000000000000000        0.0000000000000000     
   20.000000000000000        10.000000000000000        0.0000000000000000     
   10.000000000000000        30.000000000000000        0.0000000000000000     
   0.0000000000000000        10.000000000000000        0.0000000000000000     
 CELLS            0           0
 CELL_TYPES            0

 CELL_DATA           0
 POINT_DATA           8
 FIELD Result            2
