# vtk DataFile Version 3.0
 SHELL                                                                           
ASCII
DATASET UNSTRUCTURED_GRID
 POINTS           4 double
   0.0000000000000000        1000.0000000000000        0.0000000000000000     
   0.0000000000000000        0.0000000000000000        0.0000000000000000     
   1000.0000000000000        0.0000000000000000        0.0000000000000000     
   1000.0000000000000        1000.0000000000000        0.0000000000000000     
 CELLS            1           5
           4           0           1           2           3
 CELL_TYPES            1
           9
 CELL_DATA           1
 POINT_DATA           4
 FIELD Result            2
 Displacement_Load_Case01            3           4 double
   0.0000000000000000        0.0000000000000000        0.0000000000000000     
   0.0000000000000000        0.0000000000000000        0.0000000000000000     
   2.7942352961776271E-007   5.7811765392542050E-008   6.7061643247497736E-003
   2.7942352961776250E-007  -5.7811765392541878E-008   6.7061643247497728E-003
 Stress_Load_Case01            5           4 double
  -5020.1789930008217       -7119051.7046289146        179.15988430000084       -10180.810908553131       -18674579.522975575     
  -5912.4315804036796       -9233844.6805058457       -438.18852583612988       -9256.4054286637147       -16559777.823867597     
  -5912.4315804036796       -9233844.6805058457       -438.18852583612988       -9256.4054286637147       -16559777.823867597     
  -12331.277410806517       -24452214.941440269       -642.75295979857663       -730.75182768916056       -1340775.3596409392     
