# vtk DataFile Version 3.0
 PLATE                                                                           
ASCII
DATASET UNSTRUCTURED_GRID
 POINTS          25 double
  -10.000000000000000       -10.000000000000000        0.0000000000000000     
  -5.0000000000000000       -10.000000000000000        0.0000000000000000     
   0.0000000000000000       -10.000000000000000        0.0000000000000000     
   5.0000000000000000       -10.000000000000000        0.0000000000000000     
   10.000000000000000       -10.000000000000000        0.0000000000000000     
   10.000000000000000       -5.0000000000000000        0.0000000000000000     
   5.0000000000000000       -5.0000000000000000        0.0000000000000000     
   0.0000000000000000       -5.0000000000000000        0.0000000000000000     
  -5.0000000000000000       -5.0000000000000000        0.0000000000000000     
  -10.000000000000000       -5.0000000000000000        0.0000000000000000     
  -10.000000000000000        0.0000000000000000        0.0000000000000000     
  -5.0000000000000000        0.0000000000000000        0.0000000000000000     
   0.0000000000000000        0.0000000000000000        0.0000000000000000     
   5.0000000000000000        0.0000000000000000        0.0000000000000000     
   10.000000000000000        0.0000000000000000        0.0000000000000000     
   10.000000000000000        5.0000000000000000        0.0000000000000000     
   5.0000000000000000        5.0000000000000000        0.0000000000000000     
   0.0000000000000000        5.0000000000000000        0.0000000000000000     
  -5.0000000000000000        5.0000000000000000        0.0000000000000000     
  -10.000000000000000        5.0000000000000000        0.0000000000000000     
  -10.000000000000000        10.000000000000000        0.0000000000000000     
  -5.0000000000000000        10.000000000000000        0.0000000000000000     
   0.0000000000000000        10.000000000000000        0.0000000000000000     
   5.0000000000000000        10.000000000000000        0.0000000000000000     
   10.000000000000000        10.000000000000000        0.0000000000000000     
 CELLS           16          80
           4           0           1           8           9
           4           1           2           7           8
           4           2           3           6           7
           4           3           4           5           6
           4           9           8          11          10
           4           8           7          12          11
           4           7           6          13          12
           4           6           5          14          13
           4          10          11          18          19
           4          11          12          17          18
           4          12          13          16          17
           4          13          14          15          16
           4          19          18          21          20
           4          18          17          22          21
           4          17          16          23          22
           4          16          15          24          23
 CELL_TYPES           16
           9           9           9           9           9           9           9           9           9           9           9           9           9           9           9           9
 CELL_DATA          16
 POINT_DATA          25
 FIELD Result            2
 Displacement_Load_Case01            3          25 double
   0.0000000000000000        0.0000000000000000        0.0000000000000000     
   0.0000000000000000        0.0000000000000000        0.0000000000000000     
   0.0000000000000000        0.0000000000000000        0.0000000000000000     
   0.0000000000000000        0.0000000000000000        0.0000000000000000     
   0.0000000000000000        0.0000000000000000        0.0000000000000000     
   0.0000000000000000        0.0000000000000000        0.0000000000000000     
   0.0000000000000000        0.0000000000000000        0.0000000000000000     
   0.0000000000000000        0.0000000000000000        0.0000000000000000     
   0.0000000000000000        0.0000000000000000        0.0000000000000000     
   0.0000000000000000        0.0000000000000000        0.0000000000000000     
   0.0000000000000000        0.0000000000000000        0.0000000000000000     
   0.0000000000000000        0.0000000000000000        0.0000000000000000     
   0.0000000000000000        0.0000000000000000        0.0000000000000000     
   0.0000000000000000        0.0000000000000000        0.0000000000000000     
   0.0000000000000000        0.0000000000000000        0.0000000000000000     
   0.0000000000000000        0.0000000000000000        0.0000000000000000     
   0.0000000000000000        0.0000000000000000        0.0000000000000000     
   0.0000000000000000        0.0000000000000000        0.0000000000000000     
   0.0000000000000000        0.0000000000000000        0.0000000000000000     
   0.0000000000000000        0.0000000000000000        0.0000000000000000     
   0.0000000000000000        0.0000000000000000        0.0000000000000000     
   0.0000000000000000        0.0000000000000000        0.0000000000000000     
   0.0000000000000000        0.0000000000000000        0.0000000000000000     
   0.0000000000000000        0.0000000000000000        0.0000000000000000     
   0.0000000000000000        0.0000000000000000        0.0000000000000000     
 Stress_Load_Case01            3          25 double
   0.0000000000000000        0.0000000000000000        0.0000000000000000     
   0.0000000000000000        0.0000000000000000        0.0000000000000000     
   0.0000000000000000        0.0000000000000000        0.0000000000000000     
   0.0000000000000000        0.0000000000000000        0.0000000000000000     
   0.0000000000000000        0.0000000000000000        0.0000000000000000     
   0.0000000000000000        0.0000000000000000        0.0000000000000000     
   0.0000000000000000        0.0000000000000000        0.0000000000000000     
   0.0000000000000000        0.0000000000000000        0.0000000000000000     
   0.0000000000000000        0.0000000000000000        0.0000000000000000     
   0.0000000000000000        0.0000000000000000        0.0000000000000000     
   0.0000000000000000        0.0000000000000000        0.0000000000000000     
   0.0000000000000000        0.0000000000000000        0.0000000000000000     
   0.0000000000000000        0.0000000000000000        0.0000000000000000     
   0.0000000000000000        0.0000000000000000        0.0000000000000000     
   0.0000000000000000        0.0000000000000000        0.0000000000000000     
   0.0000000000000000        0.0000000000000000        0.0000000000000000     
   0.0000000000000000        0.0000000000000000        0.0000000000000000     
   0.0000000000000000        0.0000000000000000        0.0000000000000000     
   0.0000000000000000        0.0000000000000000        0.0000000000000000     
   0.0000000000000000        0.0000000000000000        0.0000000000000000     
   0.0000000000000000        0.0000000000000000        0.0000000000000000     
   0.0000000000000000        0.0000000000000000        0.0000000000000000     
   0.0000000000000000        0.0000000000000000        0.0000000000000000     
   0.0000000000000000        0.0000000000000000        0.0000000000000000     
   0.0000000000000000        0.0000000000000000        0.0000000000000000     
