# vtk DataFile Version 3.0
 SHELL8Q                                                                         
ASCII
DATASET UNSTRUCTURED_GRID
 POINTS           8 double
   0.0000000000000000        0.0000000000000000        0.0000000000000000     
   20.000000000000000        0.0000000000000000        0.0000000000000000     
   20.000000000000000        30.000000000000000        0.0000000000000000     
   0.0000000000000000        30.000000000000000        0.0000000000000000     
   10.000000000000000        0.0000000000000000        0.0000000000000000     
   20.000000000000000        10.000000000000000        0.0000000000000000     
   10.000000000000000        30.000000000000000        0.0000000000000000     
   0.0000000000000000        10.000000000000000        0.0000000000000000     
 CELLS            1           9
           8           0           1           2           3           4           5           6           7
 CELL_TYPES            1
          23
 CELL_DATA           1
 POINT_DATA           8
 FIELD Result            2
 Displacement_Load_Case01            3           8 double
   0.0000000000000000        0.0000000000000000        0.0000000000000000     
   1.9473612490203214E-009   9.1610662715455891E-010   0.0000000000000000     
   1.9473612490203189E-009  -9.1610662715455508E-010   0.0000000000000000     
   0.0000000000000000        0.0000000000000000        0.0000000000000000     
   9.2787529315243330E-010   9.2956834891434919E-011   0.0000000000000000     
   5.2011264313961525E-010   1.6026624368214911E-024   0.0000000000000000     
   9.2787529315243144E-010  -9.2956834891433524E-011   0.0000000000000000     
   0.0000000000000000        0.0000000000000000        0.0000000000000000     
 Stress_Load_Case01            5           8 double
   11466560837.171822        3439968251.1514492       -1584036677.8382378        0.0000000000000000        0.0000000000000000     
   11466560837.171684       -5508570231.4327183       -3536091792.2039261        0.0000000000000000        0.0000000000000000     
   18032358575.611759       -3538830909.9007301        3935827478.4825010        0.0000000000000000        0.0000000000000000     
   18032358575.611702        5409707572.6834431        1007744852.9048796        0.0000000000000000        0.0000000000000000     
   12642252915.216669        2884672603.3422389       -2560064235.0210962        0.0000000000000000        0.0000000000000000     
   2712162924.8373981       -8134889605.1330061       -162671267.19226223        0.0000000000000000        0.0000000000000000     
   19208050653.656647        4854411924.8742294        2471786165.6936750        0.0000000000000000        0.0000000000000000     
   2712162924.8374701        813648877.45116353        162671267.19232273        0.0000000000000000        0.0000000000000000     
