# vtk DataFile Version 3.0
 Bridge test                                                                     
ASCII
DATASET UNSTRUCTURED_GRID
 POINTS          18 double
   0.0000000000000000        0.0000000000000000        0.0000000000000000     
   1.0000000000000000        0.0000000000000000        0.0000000000000000     
   1.0000000000000000        1.0000000000000000        0.0000000000000000     
   0.0000000000000000        1.0000000000000000        0.0000000000000000     
   0.0000000000000000        0.0000000000000000        1.0000000000000000     
   1.0000000000000000        0.0000000000000000        1.0000000000000000     
   1.0000000000000000        1.0000000000000000        1.0000000000000000     
   0.0000000000000000        1.0000000000000000        1.0000000000000000     
   0.0000000000000000        3.0000000000000000        0.0000000000000000     
   1.0000000000000000        3.0000000000000000        0.0000000000000000     
   1.0000000000000000        4.0000000000000000        0.0000000000000000     
   0.0000000000000000        4.0000000000000000        0.0000000000000000     
   0.0000000000000000        3.0000000000000000        1.0000000000000000     
   1.0000000000000000        3.0000000000000000        1.0000000000000000     
   1.0000000000000000        4.0000000000000000        1.0000000000000000     
   0.0000000000000000        4.0000000000000000        1.0000000000000000     
   1.0000000000000000        2.0000000000000000        1.0000000000000000     
   0.0000000000000000        2.0000000000000000        1.0000000000000000     
 CELLS            2          18
           8           0           1           2           3           4           5           6           7
           8           8           9          10          11          12          13          14          15
 CELL_TYPES            2
          12          12
 CELL_DATA           2
 POINT_DATA          18
 FIELD Result            2
