# vtk DataFile Version 3.0
 SHELL8Q                                                                         
ASCII
DATASET UNSTRUCTURED_GRID
 POINTS           8 double
   0.0000000000000000        0.0000000000000000        0.0000000000000000     
   20.000000000000000        0.0000000000000000        0.0000000000000000     
   20.000000000000000        30.000000000000000        0.0000000000000000     
   0.0000000000000000        30.000000000000000        0.0000000000000000     
   10.000000000000000        0.0000000000000000        0.0000000000000000     
   20.000000000000000        10.000000000000000        0.0000000000000000     
   10.000000000000000        30.000000000000000        0.0000000000000000     
   0.0000000000000000        10.000000000000000        0.0000000000000000     
 CELLS            1           9
           8           0           1           2           3           4           5           6           7
 CELL_TYPES            1
          23
 CELL_DATA           1
 POINT_DATA           8
 FIELD Result            2
 Displacement_Load_Case01            3           8 double
   0.0000000000000000        0.0000000000000000        0.0000000000000000     
   1.9473612490203197E-009   9.1610662715455591E-010   0.0000000000000000     
   1.9473612490203201E-009  -9.1610662715455684E-010   0.0000000000000000     
   0.0000000000000000        0.0000000000000000        0.0000000000000000     
   9.2787529315243196E-010   9.2956834891434002E-011   0.0000000000000000     
   5.2011264313961525E-010  -3.6189151799194961E-025   0.0000000000000000     
   9.2787529315243206E-010  -9.2956834891434390E-011   0.0000000000000000     
   0.0000000000000000        0.0000000000000000        0.0000000000000000     
 Stress_Load_Case01            5           8 double
   11466560837.171761        3439968251.1514554       -1584036677.8382263        0.0000000000000000        0.0000000000000000     
   11466560837.171513       -5508570231.4326496       -3536091792.2039208        0.0000000000000000        0.0000000000000000     
   18032358575.611271       -3538830909.9006996        3935827478.4824886        0.0000000000000000        0.0000000000000000     
   18032358575.611504        5409707572.6834145        1007744852.9048586        0.0000000000000000        0.0000000000000000     
   12642252915.216496        2884672603.3421974       -2560064235.0210819        0.0000000000000000        0.0000000000000000     
   2712162924.8374295       -8134889605.1328773       -162671267.19227499        0.0000000000000000        0.0000000000000000     
   19208050653.656242        4854411924.8741531        2471786165.6936655        0.0000000000000000        0.0000000000000000     
   2712162924.8376732        813648877.45122957        162671267.19231153        0.0000000000000000        0.0000000000000000     
