# vtk DataFile Version 3.0
 Cables to test STAP90 for 3T element                                            
ASCII
DATASET UNSTRUCTURED_GRID
 POINTS           4 double
   0.0000000000000000        0.0000000000000000        0.0000000000000000     
   2.0000000000000000       0.50000000000000000        0.0000000000000000     
   0.0000000000000000        1.0000000000000000        0.0000000000000000     
   2.0000000000000000        1.0000000000000000        0.0000000000000000     
 CELLS            0           0
 CELL_TYPES            0

 CELL_DATA           0
 POINT_DATA           4
 FIELD Result            2
 Displacement_Load_Case01            3           4 double
   0.0000000000000000        0.0000000000000000        0.0000000000000000     
  -3.8710081010916300E-007  -6.6568327546839498E-006   0.0000000000000000     
   0.0000000000000000        0.0000000000000000        0.0000000000000000     
   1.2348190547683865E-006  -7.0406806168090022E-006   0.0000000000000000     
