# vtk DataFile Version 3.0
 Bridge test                                                                    
  
ASCII
DATASET UNSTRUCTURED_GRID
 POINTS          18 double
  0.000000000000000E+000  0.000000000000000E+000  0.000000000000000E+000
   1.00000000000000       0.000000000000000E+000  0.000000000000000E+000
   1.00000000000000        1.00000000000000       0.000000000000000E+000
  0.000000000000000E+000   1.00000000000000       0.000000000000000E+000
  0.000000000000000E+000  0.000000000000000E+000   1.00000000000000     
   1.00000000000000       0.000000000000000E+000   1.00000000000000     
   1.00000000000000        1.00000000000000        1.00000000000000     
  0.000000000000000E+000   1.00000000000000        1.00000000000000     
  0.000000000000000E+000   3.00000000000000       0.000000000000000E+000
   1.00000000000000        3.00000000000000       0.000000000000000E+000
   1.00000000000000        4.00000000000000       0.000000000000000E+000
  0.000000000000000E+000   4.00000000000000       0.000000000000000E+000
  0.000000000000000E+000   3.00000000000000        1.00000000000000     
   1.00000000000000        3.00000000000000        1.00000000000000     
   1.00000000000000        4.00000000000000        1.00000000000000     
  0.000000000000000E+000   4.00000000000000        1.00000000000000     
   1.00000000000000        2.00000000000000        1.00000000000000     
  0.000000000000000E+000   2.00000000000000        1.00000000000000     
 CELLS            4          28
           8           7           6           5           4           3
           2           1           0
           8           8           9          10          11          12
          13          14          15
           4           6          16          17           7
           4          16          13          12          17
 CELL_TYPES            4
          12          12           9           9
 CELL_DATA           4
 POINT_DATA          18
 FIELD Result            2
 Displacement_Load_Case01            3          18 double
  0.000000000000000E+000  0.000000000000000E+000  0.000000000000000E+000
  0.000000000000000E+000  0.000000000000000E+000  0.000000000000000E+000
  0.000000000000000E+000  0.000000000000000E+000  0.000000000000000E+000
  0.000000000000000E+000  0.000000000000000E+000  0.000000000000000E+000
 -3.111870892726445E-011 -2.353199594697899E-009 -9.476919730069688E-010
  3.111870892746132E-011 -2.353199594697867E-009 -9.476919730069839E-010
 -6.783216457249180E-010 -2.756541469356517E-009  4.631206910158776E-009
  6.783216457250463E-010 -2.756541469356625E-009  4.631206910159123E-009
  0.000000000000000E+000  0.000000000000000E+000  0.000000000000000E+000
  0.000000000000000E+000  0.000000000000000E+000  0.000000000000000E+000
  0.000000000000000E+000  0.000000000000000E+000  0.000000000000000E+000
  0.000000000000000E+000  0.000000000000000E+000  0.000000000000000E+000
  6.783216457251134E-010  2.756541469356732E-009  4.631206910159437E-009
 -6.783216457249828E-010  2.756541469356644E-009  4.631206910159068E-009
  3.111870892741055E-011  2.353199594697960E-009 -9.476919730070006E-010
 -3.111870892731263E-011  2.353199594697946E-009 -9.476919730069762E-010
 -3.130245032809825E-010  3.328177944909728E-023  1.393271207058951E-006
  3.130245032809904E-010  1.447760414246117E-023  1.393271207058952E-006
 Stress_Load_Case01            6          18 double
   4.88838277251583        9.67703268823650        49.9534229667785     
   2.83776141860982        22.5788593104752        2.58881174718888     
   4.88838277251525        9.67703268823624        49.9534229667764     
  -2.83776141860894        22.5788593104745       -2.58881174719208     
  -8.91392850432031       -9.80080142581808       -14.1556022126053     
  -2.83776141860924        25.8055943077440       -2.58881174719048     
  -8.91392850431974       -9.80080142581782       -14.1556022126032     
   2.83776141860952        25.8055943077447        2.58881174719048     
   14.2681855127220        17.1059469313312        54.1556022126037     
   2.83776141860953       -22.0523317548522        2.58881174719033     
   14.2681855127214        17.1059469313310        54.1556022126017     
  -2.83776141860923       -22.0523317548530       -2.58881174719063     
  0.465874235885874       -2.37188718272335       -9.95342296678006     
  -2.83776141860953       -18.8255967575834       -2.58881174718903     
  0.465874235886446       -2.37188718272309       -9.95342296677801     
   2.83776141860923       -18.8255967575827        2.58881174719193     
   14.2681855127229        17.1059469313323        54.1556022126073     
  -2.83776141860984        22.0523317548530        2.58881174719058     
   14.2681855127223        17.1059469313321        54.1556022126052     
   2.83776141860944        22.0523317548541       -2.58881174719091     
  0.465874235886204       -2.37188718272324       -9.95342296678010     
   2.83776141860984        18.8255967575842       -2.58881174718966     
  0.465874235886794       -2.37188718272306       -9.95342296677796     
  -2.83776141860944        18.8255967575831        2.58881174719183     
   4.88838277251568        9.67703268823673        49.9534229667817     
  -2.83776141861027       -22.5788593104770        2.58881174718900     
   4.88838277251509        9.67703268823654        49.9534229667795     
   2.83776141860901       -22.5788593104759       -2.58881174719249     
  -8.91392850432097       -9.80080142581881       -14.1556022126058     
   2.83776141860942       -25.8055943077458       -2.58881174719124     
  -8.91392850432038       -9.80080142581863       -14.1556022126036     
  -2.83776141860986       -25.8055943077469        2.58881174719025     
   73361557.7662393       -89316403.4597849        192450095.712619     
   696438801.153261       -51566846.1264171       -333333345.298821     
   1244016941.83904       -1021794622.32821       -2680483878.11359     
  -192450083.747131       -1325355910.48656       9.738305523813647E-308
