# vtk DataFile Version 3.0
 a test to STAP90                                                               
  
ASCII
DATASET UNSTRUCTURED_GRID
 POINTS           3 double
 -0.300000000000000       0.519600000000000       0.000000000000000E+000
  0.519600000000000       0.519600000000000       0.000000000000000E+000
  0.000000000000000E+000  0.000000000000000E+000  0.000000000000000E+000
 CELLS            2           6
           2           0           2
           2           2           1
 CELL_TYPES            2
           3           3
 CELL_DATA           2
 POINT_DATA           3
 FIELD Result            3
 Displacement_Load_Case01            3           3 double
  0.000000000000000E+000  0.000000000000000E+000  0.000000000000000E+000
  0.000000000000000E+000  0.000000000000000E+000  0.000000000000000E+000
  6.282303321324623E-005  1.669671354314215E-003  0.000000000000000E+000
 Stress_Load_Case01            6           3 double
  -488032210.716444       0.000000000000000E+000  0.000000000000000E+000
  0.000000000000000E+000  0.000000000000000E+000  0.000000000000000E+000
  -345098477.885089       0.000000000000000E+000  0.000000000000000E+000
  0.000000000000000E+000  0.000000000000000E+000  0.000000000000000E+000
  -416565344.300767       0.000000000000000E+000  0.000000000000000E+000
  0.000000000000000E+000  0.000000000000000E+000  0.000000000000000E+000
 Mises_Load_Case01            1           3 double
   488032210.716444        345098477.885089        416565344.300767     
