# vtk DataFile Version 3.0
 Bridge                                                                         
  
ASCII
DATASET UNSTRUCTURED_GRID
 POINTS        4087 double
   200.000000000000       -10.0000000000000       0.000000000000000E+000
   200.000000000000        10.0000000000000       0.000000000000000E+000
   150.000000000000        10.0000000000000       0.000000000000000E+000
   150.000000000000       -10.0000000000000       0.000000000000000E+000
   100.000000000000        10.0000000000000       0.000000000000000E+000
   100.000000000000       -10.0000000000000       0.000000000000000E+000
   50.0000000000000        10.0000000000000       0.000000000000000E+000
   50.0000000000000       -10.0000000000000       0.000000000000000E+000
  0.000000000000000E+000   10.0000000000000       0.000000000000000E+000
  0.000000000000000E+000  -10.0000000000000       0.000000000000000E+000
  -50.0000000000000        10.0000000000000       0.000000000000000E+000
  -50.0000000000000       -10.0000000000000       0.000000000000000E+000
  -100.000000000000        10.0000000000000       0.000000000000000E+000
  -100.000000000000       -10.0000000000000       0.000000000000000E+000
  -150.000000000000        10.0000000000000       0.000000000000000E+000
  -150.000000000000       -10.0000000000000       0.000000000000000E+000
  -200.000000000000        10.0000000000000       0.000000000000000E+000
  -200.000000000000       -10.0000000000000       0.000000000000000E+000
  -250.000000000000        10.0000000000000       0.000000000000000E+000
  -250.000000000000       -10.0000000000000       0.000000000000000E+000
   250.000000000000       -10.0000000000000       0.000000000000000E+000
   250.000000000000        10.0000000000000       0.000000000000000E+000
   200.000000000000       -5.00000000000000       0.000000000000000E+000
   200.000000000000       0.000000000000000E+000  0.000000000000000E+000
   200.000000000000        5.00000000000000       0.000000000000000E+000
   195.000000000000        10.0000000000000       0.000000000000000E+000
   190.000000000000        10.0000000000000       0.000000000000000E+000
   185.000000000000        10.0000000000000       0.000000000000000E+000
   180.000000000000        10.0000000000000       0.000000000000000E+000
   175.000000000000        10.0000000000000       0.000000000000000E+000
   170.000000000000        10.0000000000000       0.000000000000000E+000
   165.000000000000        10.0000000000000       0.000000000000000E+000
   160.000000000000        10.0000000000000       0.000000000000000E+000
   155.000000000000        10.0000000000000       0.000000000000000E+000
   150.000000000000        5.00000000000000       0.000000000000000E+000
   150.000000000000       0.000000000000000E+000  0.000000000000000E+000
   150.000000000000       -5.00000000000000       0.000000000000000E+000
   155.000000000000       -10.0000000000000       0.000000000000000E+000
   160.000000000000       -10.0000000000000       0.000000000000000E+000
   165.000000000000       -10.0000000000000       0.000000000000000E+000
   170.000000000000       -10.0000000000000       0.000000000000000E+000
   175.000000000000       -10.0000000000000       0.000000000000000E+000
   180.000000000000       -10.0000000000000       0.000000000000000E+000
   185.000000000000       -10.0000000000000       0.000000000000000E+000
   190.000000000000       -10.0000000000000       0.000000000000000E+000
   195.000000000000       -10.0000000000000       0.000000000000000E+000
   145.000000000000        10.0000000000000       0.000000000000000E+000
   140.000000000000        10.0000000000000       0.000000000000000E+000
   135.000000000000        10.0000000000000       0.000000000000000E+000
   130.000000000000        10.0000000000000       0.000000000000000E+000
   125.000000000000        10.0000000000000       0.000000000000000E+000
   120.000000000000        10.0000000000000       0.000000000000000E+000
   115.000000000000        10.0000000000000       0.000000000000000E+000
   110.000000000000        10.0000000000000       0.000000000000000E+000
   105.000000000000        10.0000000000000       0.000000000000000E+000
   100.000000000000        5.00000000000000       0.000000000000000E+000
   100.000000000000       0.000000000000000E+000  0.000000000000000E+000
   100.000000000000       -5.00000000000000       0.000000000000000E+000
   105.000000000000       -10.0000000000000       0.000000000000000E+000
   110.000000000000       -10.0000000000000       0.000000000000000E+000
   115.000000000000       -10.0000000000000       0.000000000000000E+000
   120.000000000000       -10.0000000000000       0.000000000000000E+000
   125.000000000000       -10.0000000000000       0.000000000000000E+000
   130.000000000000       -10.0000000000000       0.000000000000000E+000
   135.000000000000       -10.0000000000000       0.000000000000000E+000
   140.000000000000       -10.0000000000000       0.000000000000000E+000
   145.000000000000       -10.0000000000000       0.000000000000000E+000
   95.0000000000000        10.0000000000000       0.000000000000000E+000
   90.0000000000000        10.0000000000000       0.000000000000000E+000
   85.0000000000000        10.0000000000000       0.000000000000000E+000
   80.0000000000000        10.0000000000000       0.000000000000000E+000
   75.0000000000000        10.0000000000000       0.000000000000000E+000
   70.0000000000000        10.0000000000000       0.000000000000000E+000
   65.0000000000000        10.0000000000000       0.000000000000000E+000
   60.0000000000000        10.0000000000000       0.000000000000000E+000
   55.0000000000000        10.0000000000000       0.000000000000000E+000
   50.0000000000000        5.00000000000000       0.000000000000000E+000
   50.0000000000000       0.000000000000000E+000  0.000000000000000E+000
   50.0000000000000       -5.00000000000000       0.000000000000000E+000
   55.0000000000000       -10.0000000000000       0.000000000000000E+000
   60.0000000000000       -10.0000000000000       0.000000000000000E+000
   65.0000000000000       -10.0000000000000       0.000000000000000E+000
   70.0000000000000       -10.0000000000000       0.000000000000000E+000
   75.0000000000000       -10.0000000000000       0.000000000000000E+000
   80.0000000000000       -10.0000000000000       0.000000000000000E+000
   85.0000000000000       -10.0000000000000       0.000000000000000E+000
   90.0000000000000       -10.0000000000000       0.000000000000000E+000
   95.0000000000000       -10.0000000000000       0.000000000000000E+000
   45.0000000000000        10.0000000000000       0.000000000000000E+000
   40.0000000000000        10.0000000000000       0.000000000000000E+000
   35.0000000000000        10.0000000000000       0.000000000000000E+000
   30.0000000000000        10.0000000000000       0.000000000000000E+000
   25.0000000000000        10.0000000000000       0.000000000000000E+000
   20.0000000000000        10.0000000000000       0.000000000000000E+000
   15.0000000000000        10.0000000000000       0.000000000000000E+000
   10.0000000000000        10.0000000000000       0.000000000000000E+000
   5.00000000000000        10.0000000000000       0.000000000000000E+000
  0.000000000000000E+000   5.00000000000000       0.000000000000000E+000
  0.000000000000000E+000  0.000000000000000E+000  0.000000000000000E+000
  0.000000000000000E+000  -5.00000000000000       0.000000000000000E+000
   5.00000000000000       -10.0000000000000       0.000000000000000E+000
   10.0000000000000       -10.0000000000000       0.000000000000000E+000
   15.0000000000000       -10.0000000000000       0.000000000000000E+000
   20.0000000000000       -10.0000000000000       0.000000000000000E+000
   25.0000000000000       -10.0000000000000       0.000000000000000E+000
   30.0000000000000       -10.0000000000000       0.000000000000000E+000
   35.0000000000000       -10.0000000000000       0.000000000000000E+000
   40.0000000000000       -10.0000000000000       0.000000000000000E+000
   45.0000000000000       -10.0000000000000       0.000000000000000E+000
  -5.00000000000000        10.0000000000000       0.000000000000000E+000
  -10.0000000000000        10.0000000000000       0.000000000000000E+000
  -15.0000000000000        10.0000000000000       0.000000000000000E+000
  -20.0000000000000        10.0000000000000       0.000000000000000E+000
  -25.0000000000000        10.0000000000000       0.000000000000000E+000
  -30.0000000000000        10.0000000000000       0.000000000000000E+000
  -35.0000000000000        10.0000000000000       0.000000000000000E+000
  -40.0000000000000        10.0000000000000       0.000000000000000E+000
  -45.0000000000000        10.0000000000000       0.000000000000000E+000
  -50.0000000000000        5.00000000000000       0.000000000000000E+000
  -50.0000000000000       0.000000000000000E+000  0.000000000000000E+000
  -50.0000000000000       -5.00000000000000       0.000000000000000E+000
  -45.0000000000000       -10.0000000000000       0.000000000000000E+000
  -40.0000000000000       -10.0000000000000       0.000000000000000E+000
  -35.0000000000000       -10.0000000000000       0.000000000000000E+000
  -30.0000000000000       -10.0000000000000       0.000000000000000E+000
  -25.0000000000000       -10.0000000000000       0.000000000000000E+000
  -20.0000000000000       -10.0000000000000       0.000000000000000E+000
  -15.0000000000000       -10.0000000000000       0.000000000000000E+000
  -10.0000000000000       -10.0000000000000       0.000000000000000E+000
  -5.00000000000000       -10.0000000000000       0.000000000000000E+000
  -55.0000000000000        10.0000000000000       0.000000000000000E+000
  -60.0000000000000        10.0000000000000       0.000000000000000E+000
  -65.0000000000000        10.0000000000000       0.000000000000000E+000
  -70.0000000000000        10.0000000000000       0.000000000000000E+000
[...]
 CELL_DATA        2884
 POINT_DATA        4087
 FIELD Result            2
 Displacement_Load_Case01            3        4087 double
 -9.576205883179560E-003  1.804222779139984E-004 -9.479173479422744E-002
 -9.575982435917311E-003 -1.791640088785341E-004 -9.479298705968321E-002
 -6.970115736803443E-003  1.124523728738701E-004 -0.131124791784231     
 -6.970062567719553E-003 -1.102052677436066E-004 -0.131124654652192     
 -3.887959459794059E-003  1.420053521670492E-004 -0.124018562110614     
 -3.886478184665139E-003 -1.431136128468690E-004 -0.124018660598537     
 -2.320611273951346E-003  1.118844080352790E-004 -8.232526161338560E-002
 -2.315886107428685E-003 -1.280318541542898E-004 -8.232903394586452E-002
  1.820927691426101E-004  6.021163112547873E-005 -1.542274665367592E-002
  1.910360919259788E-004 -1.103081585886981E-004 -1.542366032486116E-002
  2.723406900895255E-003  6.525147165699187E-005 -8.259961471633269E-002
  2.737716917183773E-003 -1.780761222431329E-004 -8.260686411839173E-002
  4.309791937581493E-003  5.446784111071563E-005 -0.124555751848568     
  4.321866724541686E-003 -2.378869645281775E-004 -0.124564935711590     
  7.499820477957466E-003 -2.145953715009551E-006 -0.132171813551616     
  7.507610564393779E-003 -2.356599487452083E-004 -0.132180275556990     
  1.018318699651934E-002 -2.978077059267354E-004 -9.617047838631167E-002
  1.017927773799052E-002  4.575895974885148E-005 -9.620251113065403E-002
  1.438906841812320E-003 -2.556084809351131E-004 -2.083370221619688E-003
  1.421891327736813E-003  5.085798495760985E-005 -2.117015424810210E-003
 -6.405782215415881E-004  7.530727149565890E-005 -9.064424784461456E-004
 -6.405501093178856E-004 -7.526678653266210E-005 -9.064464260070456E-004
 -7.341760264096085E-003  9.106510928442877E-005 -0.102373954888919     
 -7.160590967662149E-003  6.297672605321961E-007 -0.105152421205190     
 -7.341633769366119E-003 -8.980589284857601E-005 -0.102374600267524     
 -8.200619816457312E-003 -3.400553236420216E-004 -0.102217644413679     
 -7.732985840057301E-003 -1.370615399117031E-004 -0.113777910841331     
 -7.558339315164633E-003  8.908134266263082E-006 -0.124662561112826     
 -7.447518595343096E-003  6.552804693517207E-005 -0.133417080606337     
 -7.335200949037068E-003  7.926408713774050E-005 -0.139368979548927     
 -7.212718955469421E-003  8.191017302574569E-005 -0.142181080029986     
 -7.085270582946314E-003  8.958606166350013E-005 -0.141844669511850     
 -6.966706872019003E-003  1.120528466875786E-004 -0.138710317010050     
 -6.895371380818152E-003  1.437589133028419E-004 -0.133850706373122     
 -6.608487497996032E-003  5.773699880736167E-005 -0.138027329805324     
 -6.579124435501535E-003  1.136688827101921E-006 -0.140477164349478     
 -6.608446781472280E-003 -5.547018254683795E-005 -0.138027263270177     
 -6.895385693261739E-003 -1.415161181621877E-004 -0.133850455954028     
 -6.966783287017247E-003 -1.098472926589100E-004 -0.138709936497185     
 -7.085400323375463E-003 -8.744710510675524E-005 -0.141844145753907     
 -7.212892493930362E-003 -7.986225203445541E-005 -0.142180408216730     
 -7.335408759092730E-003 -7.732671049885196E-005 -0.139368161099581     
 -7.447751164968769E-003 -6.371597004722375E-005 -0.133416122903256     
 -7.558587155373449E-003 -7.231349130692143E-006 -0.124661478167795     
 -7.733239457161470E-003  1.385974043842882E-004 -0.113776725157971     
 -8.200867945811745E-003  3.414490062303312E-004 -0.102216395401062     
 -6.500663870739092E-003  9.265139512234995E-005 -0.137780151342129     
 -6.179140665066260E-003  1.264764963074779E-004 -0.146834879318191     
 -5.904923522193236E-003  1.504255309976713E-004 -0.154077493311183     
 -5.641000996672987E-003  1.596333092601919E-004 -0.158296321118547     
 -5.377323248168089E-003  1.615911977678400E-004 -0.159034410515363     
 -5.113007236300689E-003  1.600865461198464E-004 -0.156199782893476     
 -4.847839347448658E-003  1.540779364504510E-004 -0.150042153645146     
 -4.575948149136384E-003  1.397925985318743E-004 -0.141176841681419     
 -4.275452103567973E-003  1.207125898931234E-004 -0.130998852440727     
 -4.104162503572322E-003  6.968889336594712E-005 -0.130881434517578     
 -4.121314821987808E-003 -5.191056778345484E-007 -0.133398947201856     
 -4.103379618573634E-003 -7.074461909810693E-005 -0.130881492101228     
 -4.274138358484684E-003 -1.211333389362657E-004 -0.130998824707461     
 -4.574809800770609E-003 -1.396129995236154E-004 -0.141176745808881     
 -4.846869890856576E-003 -1.533862148883454E-004 -0.150042034658188     
 -5.112196958164733E-003 -1.589653846118710E-004 -0.156199669668859     
 -5.376662427289844E-003 -1.601177286498108E-004 -0.159034318512568     
 -5.640479946778590E-003 -1.578798372630131E-004 -0.158296255042780     
 -5.904532558516568E-003 -1.484595235381040E-004 -0.154077447760002     
 -6.178870107004784E-003 -1.243604212728647E-004 -0.146834838418817     
 -6.500504793342267E-003 -9.044271324174714E-005 -0.137780086965929     
 -3.826550233722954E-003  1.505161896590106E-004 -0.127049649386475     
 -3.676082840875412E-003  1.292977699181313E-004 -0.132563563456524     
 -3.497365917206279E-003  1.142191904110417E-004 -0.136566660293787     
 -3.312593731233976E-003  1.080189010730901E-004 -0.137752535315355     
 -3.127697257913826E-003  1.060936538001496E-004 -0.135526816141658     
 -2.943143539698030E-003  1.062547469164709E-004 -0.129654704498609     
 -2.759147882657542E-003  1.093754456067992E-004 -0.120252310798276     
 -2.579845030374963E-003  1.180159054031283E-004 -0.107817701748392     
 -2.420336037286142E-003  1.296675759554386E-004 -9.365377819109863E-002
 -2.169930291917517E-003  5.296716431227788E-005 -8.908657657893848E-002
 -2.156627242548336E-003 -8.017843565515173E-006 -9.148900499860686E-002
 -2.167552392809299E-003 -6.903086300603025E-005 -8.908840404325052E-002
 -2.415971212208800E-003 -1.435586335813503E-004 -9.365742979532868E-002
 -2.575835646049183E-003 -1.298279566642263E-004 -0.107821080292063     
 -2.755485257981876E-003 -1.192847036850180E-004 -0.120255326444278     
 -2.939818066963410E-003 -1.144323659336054E-004 -0.129657286376067     
 -3.124699298052559E-003 -1.127058032205921E-004 -0.135528924428291     
 -3.309913645724287E-003 -1.132269292057817E-004 -0.137754158186995     
 -3.494994033021747E-003 -1.181796432405793E-004 -0.136567811092252     
 -3.674009491275867E-003 -1.321616657892562E-004 -0.132564281462416     
 -3.824768958665771E-003 -1.524290309618514E-004 -0.127050000799615     
 -1.995835558245433E-003  1.062129880544362E-004 -8.023489042132194E-002
 -1.732815290839130E-003  1.194561741528721E-004 -7.986297135120689E-002
 -1.489228474199964E-003  1.281022302514866E-004 -7.790506369334574E-002
 -1.249661147449503E-003  1.303996725445683E-004 -7.349146825748204E-002
 -1.009955611880225E-003  1.298171290587449E-004 -6.642821400574869E-002
 -7.699006890899840E-004  1.284823486217992E-004 -5.690122220970613E-002
 -5.304917890278245E-004  1.269055851922090E-004 -4.548404831533383E-002
 -2.932163591667628E-004  1.229805290508173E-004 -3.313997701284819E-002
 -5.818266327347834E-005  1.135869201945860E-004 -2.160099525542843E-002
  1.916182718443696E-004  2.605825866955636E-005 -2.195091904524466E-002
  1.945365512171875E-004 -2.501582808888592E-005 -2.455024227286379E-002
  1.962594121282226E-004 -7.610957973784947E-005 -2.195014884262223E-002
 -4.960723063330248E-005 -1.593867088230132E-004 -2.160201067710150E-002
 -2.850820713841659E-004 -1.645984438281031E-004 -3.314130366776561E-002
 -5.228097700785564E-004 -1.645789498651164E-004 -4.548594377032766E-002
 -7.626642027312497E-004 -1.624385605307681E-004 -5.690357280632014E-002
 -1.003156461774949E-003 -1.602771684081665E-004 -6.643093001049252E-002
 -1.243291345769804E-003 -1.575801604957733E-004 -7.349449980338579E-002
 -1.483280072382446E-003 -1.522158626988044E-004 -7.790836200890185E-002
 -1.727280316894940E-003 -1.407114612304130E-004 -7.986648014676753E-002
 -1.990706907631654E-003 -1.248143268273405E-004 -8.023855627382785E-002
  4.331703652842369E-004  1.079256000879389E-004 -2.160047249105140E-002
  6.731337765343191E-004  1.139308747936073E-004 -3.316057492948925E-002
  9.134541365535861E-004  1.140247663760652E-004 -4.553161076256868E-002
  1.155518164269412E-003  1.111281841495079E-004 -5.697886422550894E-002
  1.398265535740201E-003  1.076649843731051E-004 -6.653839035381894E-002
  1.640753889933949E-003  1.033387518021819E-004 -7.363605687482390E-002
  1.883169483073683E-003  9.611144714083875E-005 -7.808500033310384E-002
  2.129651271553203E-003  8.254566719476220E-005 -8.007803308841331E-002
  2.395614414781653E-003  6.441053457213706E-005 -8.048317207628275E-002
  2.577402359720546E-003  5.456655200775484E-006 -8.935978368041367E-002
  2.568838437687937E-003 -5.638910405681264E-005 -9.176238842234249E-002
  2.584517080232351E-003 -1.182465160494701E-004 -8.936338017955912E-002
  2.409730834201683E-003 -1.700122241370993E-004 -8.049000277733991E-002
  2.143499815397376E-003 -1.810386908276504E-004 -8.008402126371965E-002
  1.896676581495495E-003 -1.876482986307282E-004 -7.808993515913902E-002
  1.653846180175597E-003 -1.881085251140700E-004 -7.363981383683826E-002
  1.410869665655167E-003 -1.858934437105529E-004 -6.654094037512957E-002
  1.167560835771110E-003 -1.830777152920435E-004 -5.698027734358015E-002
  9.248622225301486E-004 -1.799949237087486E-004 -4.553203682795667E-002
  6.838355373406101E-004 -1.742530055543008E-004 -3.316026362596246E-002
  4.430790082459671E-004 -1.629664570980358E-004 -2.160015962222661E-002
  2.826015171181835E-003  7.825758374111701E-005 -9.394970402037234E-002
  2.988481665112825E-003  6.187979391518191E-005 -0.108137513363291     
  3.170789788637654E-003  4.859582931221318E-005 -0.120595930741386     
  3.357838348448319E-003  4.093148034760558E-005 -0.130022069128281     
  3.545514068295931E-003  3.635958809063470E-005 -0.135918377574347     
  3.733629759779299E-003  3.410566998298993E-005 -0.138169406618242     
  3.921658789214860E-003  3.659664715707833E-005 -0.137010604143102     
  4.103189939976310E-003  4.879198537216774E-005 -0.133036859234981     
  4.254341531743215E-003  6.772825794104447E-005 -0.127554698304498     
  4.545849327531152E-003 -1.972061725589430E-005 -0.131422588398625     
  4.567850139808310E-003 -9.175901772018312E-005 -0.133943091682919     
  4.552075633304651E-003 -1.637727428276089E-004 -0.131427336857107     
  4.267089909555035E-003 -2.447971745450567E-004 -0.127563838947464     
  4.116426774524117E-003 -2.192281410022325E-004 -0.133045866850949     
  3.935289671943023E-003 -2.001930633198353E-004 -0.137019400416281     
  3.747580582258753E-003 -1.906880491307673E-004 -0.138177975859289     
  3.559710788596831E-003 -1.857863038773512E-004 -0.135926711875568     
  3.372206689008173E-003 -1.830981328657757E-004 -0.130030164047525     
  3.185255408725592E-003 -1.834351842170224E-004 -0.120603789278422     
  3.002970242704887E-003 -1.893617481857204E-004 -0.108145140022693     
  2.840452211939250E-003 -1.983891905488880E-004 -9.395709947163101E-002
  4.715868467397348E-003  2.856659091643573E-005 -0.131574432880797     
  5.028305425162483E-003  4.578196914585090E-005 -0.141799654181674     
  5.310008038862245E-003  5.788011594364670E-005 -0.150716455160435     
  5.584544798442077E-003  6.115458805598580E-005 -0.156928330142316     
  5.858266015590570E-003  5.973384876175000E-005 -0.159818902367556     
  6.131443298219090E-003  5.489338810974381E-005 -0.159137427981105     
  6.404934683342576E-003  4.293303537460961E-005 -0.154974903131427     
  6.688794099423239E-003  1.637612523891593E-005 -0.147787261869267     
  7.020124276686667E-003 -1.988208637791176E-005 -0.138784499401210     
  7.139180534110957E-003 -5.967278599919034E-005 -0.139075322642306     
  7.111691123269813E-003 -1.190209206032682E-004 -0.141527087427686     
  7.143044839842516E-003 -1.783099146010365E-004 -0.139079747501421     
  7.028703845099280E-003 -2.137050774913783E-004 -0.138792529547201     
  6.698081590671453E-003 -2.453749707455785E-004 -0.147795090626803     
  6.414853634999416E-003 -2.670092681445522E-004 -0.154982737250813     
  6.141918203510096E-003 -2.737503858457273E-004 -0.159145431115090     
  5.869221303683686E-003 -2.731125165385581E-004 -0.159827168930805     
  5.595904952788262E-003 -2.688336332785628E-004 -0.156936901710603     
  5.321697775148926E-003 -2.596761049752196E-004 -0.150725332654183     
  5.040249436337698E-003 -2.415447242111466E-004 -0.141808797694411     
  4.727971189163837E-003 -2.181793074370298E-004 -0.131583711656721     
  7.433839344390886E-003  2.733583942272627E-005 -0.134936567281816     
  7.514371629495268E-003 -6.130473218999248E-006 -0.139839006230810     
  7.642296424350119E-003 -3.008973541114502E-005 -0.143015095001116     
  7.779182911703833E-003 -3.896069417260950E-005 -0.143391052581004     
  7.911185111897832E-003 -4.248272646018593E-005 -0.140615900115418     
  8.033141047582078E-003 -5.665659983847097E-005 -0.134697942261196     
  8.153637007197212E-003 -1.129564404517725E-004 -0.125973751220521     
  8.337330091682710E-003 -2.573592181186663E-004 -0.115115196124867     
  8.811032348233400E-003 -4.578569416090366E-004 -0.103576565789635     
  7.970738402282311E-003 -2.125996560490083E-004 -0.103758410280014     
  7.790629156255673E-003 -1.262134795120753E-004 -0.106544197832708     
  7.968999271202872E-003 -3.973300494900770E-005 -0.103774963572959     
  8.808745686847525E-003  2.043974143130417E-004 -0.103607338963843     
  8.336471149496105E-003  3.248037637772595E-006 -0.115143847642224     
  8.154111353618557E-003 -1.411315183438720E-004 -0.125999744641742     
  8.034876955877537E-003 -1.967640782562198E-004 -0.134721056098123     
  7.914111010884803E-003 -2.096576199916806E-004 -0.140636041164031     
  7.783226968840816E-003 -2.113222615500074E-004 -0.143408242446580     
  7.647386747478889E-003 -2.177946966017586E-004 -0.143029490413408     
  7.520436261397698E-003 -2.388501023723138E-004 -0.139850910890914     
  7.440805245305364E-003 -2.689428475528938E-004 -0.134946396425746     
  8.226152978225130E-003 -1.440174777647726E-004 -0.100157009510912     
  7.168600571661831E-003 -3.446675967521711E-004 -0.106921649442398     
  6.400862155132253E-003 -4.880442262759357E-004 -0.111679711315947     
  5.696232099998637E-003 -5.427491049672311E-004 -0.112510608663919     
  4.991000341640185E-003 -5.551409862711553E-004 -0.108194597627469     
  4.278688226954899E-003 -5.553366805560314E-004 -9.789464000012424E-002
  3.567153596817656E-003 -5.528289023322431E-004 -8.132168667087207E-002
  2.866512177202723E-003 -5.381109744615865E-004 -5.890043527238550E-002
  2.176865823465720E-003 -4.824971692321620E-004 -3.182777454535227E-002
  1.418347609098904E-003 -1.657676582741061E-004 -2.153522361525917E-003
  1.410094633090436E-003 -1.025090500784423E-004 -2.173249404492962E-003
  1.409819097581732E-003 -3.919376670668762E-005 -2.170449558430892E-003
  2.161529581897345E-003  2.699388506382741E-004 -3.186168048465770E-002
  2.852767054229823E-003  3.184021572530856E-004 -5.893452776534525E-002
  3.554929333722101E-003  3.267517023218946E-004 -8.135593413972131E-002
  4.267909308978321E-003  3.236326335630308E-004 -9.792901278333045E-002
  4.981588802267243E-003  3.185138906620381E-004 -0.108229039301417     
  5.688110072214233E-003  3.018631158662206E-004 -0.112545032450133     
  6.393952038467062E-003  2.435244824289309E-004 -0.111714003950474     
  7.162824830331951E-003  9.710538944743772E-005 -0.106955645435836     
  8.221411579825356E-003 -1.060300699673026E-004 -0.100190293233125     
 -7.588105304729068E-003  2.592200717190628E-005 -9.876828398780541E-002
 -6.508726141219078E-003  2.298321554400398E-004 -0.105533265033994     
 -5.722102568370949E-003  3.761759525185955E-004 -0.110298572611047     
 -4.999178934179909E-003  4.333051207015171E-004 -0.111142687514331     
 -4.275667829116101E-003  4.482041454138532E-004 -0.106845063901485     
 -3.545417479602476E-003  4.514080358895664E-004 -9.656778185780347E-002
 -2.817431809086852E-003  4.520159610416510E-004 -8.002136202698217E-002
 -2.103611056643979E-003  4.368813097150818E-004 -5.763146593965484E-002
 -1.403117996377127E-003  3.710888740071112E-004 -3.059849316641653E-002
 -6.226927483752590E-004  2.957730461643182E-005 -9.327647743949277E-004
 -6.202465120294703E-004  1.684255367752057E-008 -9.361636908294901E-004
 -6.226815583337325E-004 -2.954208320057140E-005 -9.327637274863068E-004
 -1.403025357625491E-003 -3.709941751545973E-004 -3.059865570166047E-002
 -2.103464565517171E-003 -4.367117513434683E-004 -5.763178755803681E-002
 -2.817240746975756E-003 -4.517467403277840E-004 -8.002184047887928E-002
 -3.545191268325855E-003 -4.510192594418213E-004 -9.656841287969438E-002
 -4.275416025473646E-003 -4.476805921232071E-004 -0.106845841306667     
 -4.998911088540178E-003 -4.326363865148774E-004 -0.111143602337523     
 -5.721828210767025E-003 -3.753564137845848E-004 -0.110299612384614     
 -6.508454804358438E-003 -2.288605720855385E-004 -0.105534411723424     
 -7.587848290896016E-003 -2.480152909338982E-005 -9.876950521464639E-002
 -7.750031963520714E-003  3.404249813044132E-004 -0.106715444208900     
 -7.413833163066858E-003  6.979308036284050E-007 -0.108702540347409     
 -7.749910440008313E-003 -3.390318641129052E-004 -0.106716071779118     
 -7.717219235025236E-003  1.399223896080438E-004 -0.115034472698220     
 -7.628940812770870E-003  7.683488699036926E-007 -0.115621021285472     
 -7.717097937008070E-003 -1.383859254288035E-004 -0.115035064151270     
 -7.605947332784510E-003  1.458157450590324E-005 -0.124573833412874     
 -7.603335736229381E-003  8.399515516157870E-007 -0.124526737019639     
 -7.605828942823388E-003 -1.290246191652295E-005 -0.124574374713004     
 -7.477264749558257E-003 -3.041131497120270E-005 -0.133041299196078     
 -7.487990842435729E-003  9.090311445971506E-007 -0.132889916813525     
 -7.477153944457406E-003  3.222788977551888E-005 -0.133041778184882     
 -7.347640799596273E-003 -3.974144593308789E-005 -0.138993005771876     
 -7.354957869645501E-003  9.731140545634558E-007 -0.138846238124123     
 -7.347542365665711E-003  4.168546055950541E-005 -0.138993415007868     
 -7.219785021180397E-003 -4.074616416357763E-005 -0.141801189433932     
 -7.223673634764321E-003  1.029811722560516E-006 -0.141651049232944     
 -7.219703719481167E-003  4.280286597098095E-005 -0.141801525316978     
 -7.092749579210152E-003 -4.652348498318378E-005 -0.141682724719777     
 -7.092648768469145E-003  1.076753570877308E-006 -0.141608608777225     
 -7.092690155068948E-003  4.867334937148167E-005 -0.141682986772027     
 -6.963245372651783E-003 -6.586995714994702E-005 -0.139668167108520     
 -6.948657587231649E-003  1.111598724645104E-006 -0.140118532744706     
 -6.963212615147985E-003  6.808873812911884E-005 -0.139668357527786     
 -6.821017086054489E-003 -9.703607436045949E-005 -0.137617826862565     
 -6.766648822033903E-003  1.132543937384012E-006 -0.139329633843832     
 -6.821016628357413E-003  9.929463605873115E-005 -0.137617949608717     
 -6.429097061664626E-003 -1.657776296741178E-005 -0.141721893338621     
 -6.374623898511738E-003  1.119220566782798E-006 -0.143485355705678     
 -6.429183424535994E-003  1.880968595153963E-005 -0.141721927005705     
 -6.177110658865850E-003 -5.033756187579976E-005 -0.147870699189826     
 -6.163235142462935E-003  1.075258279786776E-006 -0.148363781600354     
 -6.177251487366018E-003  5.247948291958249E-005 -0.147870719706906     
 -5.912546354713581E-003 -7.095110379745870E-005 -0.153927135273615     
 -5.912326221552826E-003  1.001798464450546E-006 -0.153858393842785     
 -5.912747374160551E-003  7.294530765385828E-005 -0.153927157907308     
 -5.645146539244809E-003 -7.849881403699796E-005 -0.157900257350447     