# vtk DataFile Version 3.0
 Bridge                                                                         
  
ASCII
DATASET UNSTRUCTURED_GRID
 POINTS        4087 double
   200.000000000000       -10.0000000000000       0.000000000000000E+000
   200.000000000000        10.0000000000000       0.000000000000000E+000
   150.000000000000        10.0000000000000       0.000000000000000E+000
   150.000000000000       -10.0000000000000       0.000000000000000E+000
   100.000000000000        10.0000000000000       0.000000000000000E+000
   100.000000000000       -10.0000000000000       0.000000000000000E+000
   50.0000000000000        10.0000000000000       0.000000000000000E+000
   50.0000000000000       -10.0000000000000       0.000000000000000E+000
  0.000000000000000E+000   10.0000000000000       0.000000000000000E+000
  0.000000000000000E+000  -10.0000000000000       0.000000000000000E+000
  -50.0000000000000        10.0000000000000       0.000000000000000E+000
  -50.0000000000000       -10.0000000000000       0.000000000000000E+000
  -100.000000000000        10.0000000000000       0.000000000000000E+000
  -100.000000000000       -10.0000000000000       0.000000000000000E+000
  -150.000000000000        10.0000000000000       0.000000000000000E+000
  -150.000000000000       -10.0000000000000       0.000000000000000E+000
  -200.000000000000        10.0000000000000       0.000000000000000E+000
  -200.000000000000       -10.0000000000000       0.000000000000000E+000
  -250.000000000000        10.0000000000000       0.000000000000000E+000
  -250.000000000000       -10.0000000000000       0.000000000000000E+000
   250.000000000000       -10.0000000000000       0.000000000000000E+000
   250.000000000000        10.0000000000000       0.000000000000000E+000
   200.000000000000       -5.00000000000000       0.000000000000000E+000
   200.000000000000       0.000000000000000E+000  0.000000000000000E+000
   200.000000000000        5.00000000000000       0.000000000000000E+000
   195.000000000000        10.0000000000000       0.000000000000000E+000
   190.000000000000        10.0000000000000       0.000000000000000E+000
   185.000000000000        10.0000000000000       0.000000000000000E+000
   180.000000000000        10.0000000000000       0.000000000000000E+000
   175.000000000000        10.0000000000000       0.000000000000000E+000
   170.000000000000        10.0000000000000       0.000000000000000E+000
   165.000000000000        10.0000000000000       0.000000000000000E+000
   160.000000000000        10.0000000000000       0.000000000000000E+000
   155.000000000000        10.0000000000000       0.000000000000000E+000
   150.000000000000        5.00000000000000       0.000000000000000E+000
   150.000000000000       0.000000000000000E+000  0.000000000000000E+000
   150.000000000000       -5.00000000000000       0.000000000000000E+000
   155.000000000000       -10.0000000000000       0.000000000000000E+000
   160.000000000000       -10.0000000000000       0.000000000000000E+000
   165.000000000000       -10.0000000000000       0.000000000000000E+000
   170.000000000000       -10.0000000000000       0.000000000000000E+000
   175.000000000000       -10.0000000000000       0.000000000000000E+000
   180.000000000000       -10.0000000000000       0.000000000000000E+000
   185.000000000000       -10.0000000000000       0.000000000000000E+000
   190.000000000000       -10.0000000000000       0.000000000000000E+000
   195.000000000000       -10.0000000000000       0.000000000000000E+000
   145.000000000000        10.0000000000000       0.000000000000000E+000
   140.000000000000        10.0000000000000       0.000000000000000E+000
   135.000000000000        10.0000000000000       0.000000000000000E+000
   130.000000000000        10.0000000000000       0.000000000000000E+000
   125.000000000000        10.0000000000000       0.000000000000000E+000
   120.000000000000        10.0000000000000       0.000000000000000E+000
   115.000000000000        10.0000000000000       0.000000000000000E+000
   110.000000000000        10.0000000000000       0.000000000000000E+000
   105.000000000000        10.0000000000000       0.000000000000000E+000
   100.000000000000        5.00000000000000       0.000000000000000E+000
   100.000000000000       0.000000000000000E+000  0.000000000000000E+000
   100.000000000000       -5.00000000000000       0.000000000000000E+000
   105.000000000000       -10.0000000000000       0.000000000000000E+000
   110.000000000000       -10.0000000000000       0.000000000000000E+000
   115.000000000000       -10.0000000000000       0.000000000000000E+000
   120.000000000000       -10.0000000000000       0.000000000000000E+000
   125.000000000000       -10.0000000000000       0.000000000000000E+000
   130.000000000000       -10.0000000000000       0.000000000000000E+000
   135.000000000000       -10.0000000000000       0.000000000000000E+000
   140.000000000000       -10.0000000000000       0.000000000000000E+000
   145.000000000000       -10.0000000000000       0.000000000000000E+000
   95.0000000000000        10.0000000000000       0.000000000000000E+000
   90.0000000000000        10.0000000000000       0.000000000000000E+000
   85.0000000000000        10.0000000000000       0.000000000000000E+000
   80.0000000000000        10.0000000000000       0.000000000000000E+000
   75.0000000000000        10.0000000000000       0.000000000000000E+000
   70.0000000000000        10.0000000000000       0.000000000000000E+000
   65.0000000000000        10.0000000000000       0.000000000000000E+000
   60.0000000000000        10.0000000000000       0.000000000000000E+000
   55.0000000000000        10.0000000000000       0.000000000000000E+000
   50.0000000000000        5.00000000000000       0.000000000000000E+000
   50.0000000000000       0.000000000000000E+000  0.000000000000000E+000
   50.0000000000000       -5.00000000000000       0.000000000000000E+000
   55.0000000000000       -10.0000000000000       0.000000000000000E+000
   60.0000000000000       -10.0000000000000       0.000000000000000E+000
   65.0000000000000       -10.0000000000000       0.000000000000000E+000
   70.0000000000000       -10.0000000000000       0.000000000000000E+000
   75.0000000000000       -10.0000000000000       0.000000000000000E+000
   80.0000000000000       -10.0000000000000       0.000000000000000E+000
   85.0000000000000       -10.0000000000000       0.000000000000000E+000
   90.0000000000000       -10.0000000000000       0.000000000000000E+000
   95.0000000000000       -10.0000000000000       0.000000000000000E+000
   45.0000000000000        10.0000000000000       0.000000000000000E+000
   40.0000000000000        10.0000000000000       0.000000000000000E+000
   35.0000000000000        10.0000000000000       0.000000000000000E+000
   30.0000000000000        10.0000000000000       0.000000000000000E+000
   25.0000000000000        10.0000000000000       0.000000000000000E+000
   20.0000000000000        10.0000000000000       0.000000000000000E+000
   15.0000000000000        10.0000000000000       0.000000000000000E+000
   10.0000000000000        10.0000000000000       0.000000000000000E+000
   5.00000000000000        10.0000000000000       0.000000000000000E+000
  0.000000000000000E+000   5.00000000000000       0.000000000000000E+000
  0.000000000000000E+000  0.000000000000000E+000  0.000000000000000E+000
  0.000000000000000E+000  -5.00000000000000       0.000000000000000E+000
   5.00000000000000       -10.0000000000000       0.000000000000000E+000
   10.0000000000000       -10.0000000000000       0.000000000000000E+000
   15.0000000000000       -10.0000000000000       0.000000000000000E+000
   20.0000000000000       -10.0000000000000       0.000000000000000E+000
   25.0000000000000       -10.0000000000000       0.000000000000000E+000
   30.0000000000000       -10.0000000000000       0.000000000000000E+000
   35.0000000000000       -10.0000000000000       0.000000000000000E+000
   40.0000000000000       -10.0000000000000       0.000000000000000E+000
   45.0000000000000       -10.0000000000000       0.000000000000000E+000
  -5.00000000000000        10.0000000000000       0.000000000000000E+000
  -10.0000000000000        10.0000000000000       0.000000000000000E+000
  -15.0000000000000        10.0000000000000       0.000000000000000E+000
  -20.0000000000000        10.0000000000000       0.000000000000000E+000
  -25.0000000000000        10.0000000000000       0.000000000000000E+000
  -30.0000000000000        10.0000000000000       0.000000000000000E+000
  -35.0000000000000        10.0000000000000       0.000000000000000E+000
  -40.0000000000000        10.0000000000000       0.000000000000000E+000
  -45.0000000000000        10.0000000000000       0.000000000000000E+000
  -50.0000000000000        5.00000000000000       0.000000000000000E+000
  -50.0000000000000       0.000000000000000E+000  0.000000000000000E+000
  -50.0000000000000       -5.00000000000000       0.000000000000000E+000
  -45.0000000000000       -10.0000000000000       0.000000000000000E+000
  -40.0000000000000       -10.0000000000000       0.000000000000000E+000
  -35.0000000000000       -10.0000000000000       0.000000000000000E+000
  -30.0000000000000       -10.0000000000000       0.000000000000000E+000
  -25.0000000000000       -10.0000000000000       0.000000000000000E+000
  -20.0000000000000       -10.0000000000000       0.000000000000000E+000
  -15.0000000000000       -10.0000000000000       0.000000000000000E+000
  -10.0000000000000       -10.0000000000000       0.000000000000000E+000
  -5.00000000000000       -10.0000000000000       0.000000000000000E+000
  -55.0000000000000        10.0000000000000       0.000000000000000E+000
  -60.0000000000000        10.0000000000000       0.000000000000000E+000
  -65.0000000000000        10.0000000000000       0.000000000000000E+000
  -70.0000000000000        10.0000000000000       0.000000000000000E+000
[...]
 CELL_DATA        2884
 POINT_DATA        4087
 FIELD Result            2
 Displacement_Load_Case01            3        4087 double
 -6.573186353764882E-003  7.268962098293121E-005 -8.298598112353953E-002
 -6.572761037155629E-003 -7.085243571337902E-005 -8.298573826713156E-002
 -2.925322703397012E-003  1.335380912803435E-004 -0.113299736470999     
 -2.925329120542822E-003 -1.299943990399748E-004 -0.113302068640942     
 -2.840692509717760E-004  8.882190290456722E-005 -0.103767442360698     
 -2.825718283465352E-004 -8.840123590336203E-005 -0.103770009956441     
 -2.221526710988080E-004  8.151235693040911E-006 -6.538647191836490E-002
 -2.174138183007904E-004 -2.275222615418362E-005 -6.539185885256341E-002
  1.111628764031402E-004 -5.193507547268860E-005 -1.327075673653871E-002
  1.201015167846588E-004  3.521220610597265E-006 -1.327147504415514E-002
  4.618486312433453E-004 -3.826709724982718E-005 -6.546654226936538E-002
  4.754577070645500E-004 -7.080260568484170E-005 -6.546890062401207E-002
  5.331242764785149E-004  2.899337427369116E-006 -0.103963509280548     
  5.443790072220246E-004 -1.785533208308634E-004 -0.103965633392845     
  3.240608016006853E-003  2.257392102310775E-005 -0.113852616961959     
  3.247491667640665E-003 -2.480070874778388E-004 -0.113854513353453     
  6.939103029630166E-003 -1.832973358993849E-004 -8.390495941611592E-002
  6.934658428001349E-003 -5.266113963937236E-005 -8.393221090791152E-002
  9.861870000801320E-004 -1.983082355900121E-004 -1.825971936918767E-003
  9.703144849755851E-004  8.311837766498158E-006 -1.857177170082913E-003
 -4.469774233056432E-004  5.174004583316222E-005 -7.975294296897080E-004
 -4.469485004662667E-004 -5.170273853524254E-005 -7.975285187217673E-004
 -4.724039298645109E-003  3.734454436543423E-005 -9.057993199509758E-002
 -4.574063128399470E-003  9.186071311494922E-007 -9.336243169878551E-002
 -4.723821464154831E-003 -3.550735156603489E-005 -9.057980273089083E-002
 -5.307346220750124E-003 -2.044756703990878E-004 -8.976564793208991E-002
 -4.793019173025870E-003 -3.647050093561438E-005 -0.100610162985629     
 -4.521210427827802E-003  8.448725476804009E-005 -0.110799980009333     
 -4.302475623836710E-003  1.316163277795243E-004 -0.118892166975679     
 -4.083193605969686E-003  1.429941614682985E-004 -0.124212985565354     
 -3.856714528678593E-003  1.433813096988185E-004 -0.126423524740351     
 -3.626251784715286E-003  1.420085325490584E-004 -0.125516284751826     
 -3.394431389353931E-003  1.405851458526789E-004 -0.121844661358970     
 -3.161642116149439E-003  1.388532029253678E-004 -0.116484575432660     
 -2.931759191153332E-003  6.860784253621225E-005 -0.120209555125754     
 -2.932257074103698E-003  1.786764865500732E-006 -0.122662429226150     
 -2.931756199771407E-003 -6.504174477727451E-005 -0.120210747090417     
 -3.161739109811813E-003 -1.353516690768497E-004 -0.116486751645276     
 -3.394608323719188E-003 -1.371691505691736E-004 -0.121846633367406     
 -3.626497975004050E-003 -1.387153451652910E-004 -0.125518018972661     
 -3.857019310963616E-003 -1.402428939469168E-004 -0.126425007567243     
 -4.083546327597954E-003 -1.400371463004935E-004 -0.124214212958052     
 -4.302865635071030E-003 -1.288620196091457E-004 -0.118893143401138     
 -4.521627090603613E-003 -8.195163199016322E-005 -0.110800719989454     
 -4.793451841159295E-003  3.877656935229642E-005 -0.100610692209539     
 -5.307783246063996E-003  2.065464134770221E-004 -8.976600255149902E-002
 -2.698786615305281E-003  1.397448130362637E-004 -0.119543208019537     
 -2.470573157207087E-003  1.401107139199998E-004 -0.128228516759495     
 -2.241451313707640E-003  1.401103653065123E-004 -0.135141441669211     
 -2.012295003511603E-003  1.401726335531923E-004 -0.139068783677169     
 -1.784114742846600E-003  1.398672968589716E-004 -0.139551927151984     
 -1.557817875610416E-003  1.366653301028454E-004 -0.136496784304241     
 -1.331579965295314E-003  1.240106720997426E-004 -0.130150883781354     
 -1.091106839637737E-003  9.208309243474247E-005 -0.121128607273846     
 -7.863999016938845E-004  4.828179548457158E-005 -0.110826828307090     
 -7.724336786526972E-004  4.347591907421981E-005 -0.110607497493650     
 -8.116548409426907E-004  2.456777653862709E-007 -0.113117067469006     
 -7.716515728867515E-004 -4.300225831420844E-005 -0.110608834140441     
 -7.850902832867423E-004 -4.717488257254762E-005 -0.110829321030889     
 -1.089986601775097E-003 -9.038470273435403E-005 -0.121131060318285     
 -1.330640162178512E-003 -1.218148646729058E-004 -0.130153323905872     
 -1.557047187900956E-003 -1.340599798940381E-004 -0.136499236830226     
 -1.783501836580410E-003 -1.369341104644495E-004 -0.139554403937671     
 -2.011828572429230E-003 -1.369876728789043E-004 -0.139071284626513     
 -2.241120059080884E-003 -1.367440381460976E-004 -0.135143956421906     
 -2.470365791430386E-003 -1.366277924712763E-004 -0.128231023292571     
 -2.698691852157055E-003 -1.362044033805114E-004 -0.119545662254849     
 -5.174726584123556E-004  1.165112149570197E-004 -0.106717334566738     
 -5.511811581728931E-004  7.052560338795140E-005 -0.112156721902786     
 -5.209815549013966E-004  3.770717479322135E-005 -0.116142857477854     
 -4.770605411524495E-004  2.470677279268007E-005 -0.117395073741334     
 -4.334708215160429E-004  2.110568259900679E-005 -0.115342656509202     
 -3.919364434404043E-004  2.023985212127044E-005 -0.109776806069540     
 -3.516204513461079E-004  1.942378346593373E-005 -0.100840832602875     
 -3.115500764805573E-004  1.754558864080429E-005 -8.905437291308839E-002
 -2.699993983446408E-004  1.443696674971571E-005 -7.572805939702897E-002
 -2.340398999003775E-004  1.485886306699076E-006 -7.228541695245289E-002
 -2.339182557711862E-004 -7.244773394830162E-006 -7.473601019808188E-002
 -2.316619808931634E-004 -1.600335268991691E-005 -7.228806739188330E-002
 -2.656301350064466E-004 -2.677938808102897E-005 -7.573344398721506E-002
 -3.075407781716442E-004 -2.781032141010123E-005 -8.905959584122623E-002
 -3.479606337683999E-004 -2.778839734256653E-005 -0.100845796193860     
 -3.886153624313286E-004 -2.687644227460464E-005 -0.109781436666219     
 -4.304777084034752E-004 -2.618093189164977E-005 -0.115346910713115     
 -4.743846227263947E-004 -2.838197312307766E-005 -0.117398934472331     
 -5.186120312666854E-004 -4.013824629631830E-005 -0.116146331885395     
 -5.491072253870837E-004 -7.186254893620343E-005 -0.112159841032445     
 -5.156858676279074E-004 -1.168981510258130E-004 -0.106720139798120     
 -1.939515869685835E-004  1.393448640426860E-005 -6.468197160089441E-002
 -1.614216918236222E-004  1.237189429465580E-005 -6.607525901969463E-002
 -1.270143484910598E-004  1.038359991975666E-005 -6.603827389804807E-002
 -9.197936972864812E-005  8.547337646248207E-006 -6.360165239264828E-002
 -5.686409488938574E-005  6.949765023072376E-006 -5.848442327735912E-002
 -2.200178928299213E-005  5.507934563589615E-006 -5.077905104375838E-002
  1.202938135575535E-005  3.916501219834750E-006 -4.095747624127815E-002
  4.428566473366998E-005  2.384084182778527E-007 -2.987891225361328E-002
  7.503557865961042E-005 -8.043379537424495E-006 -1.916714820267685E-002
  1.166908329216188E-004 -3.112769496847054E-005 -1.981596773241707E-002
  1.192626865623784E-004 -2.417838474681314E-005 -2.237746345126205E-002
  1.212901387330035E-004 -1.724667057868596E-005 -1.981513843079762E-002
  8.358084551232312E-005 -3.608628356195288E-005 -1.916822029151850E-002
  5.238511598620951E-005 -4.020798740586087E-005 -2.988052548224206E-002
  1.967699394181682E-005 -3.996186297401349E-005 -4.095985977568146E-002
 -1.479782515730664E-005 -3.785516827951734E-005 -5.078208133719699E-002
 -5.009418733936537E-005 -3.581857585513012E-005 -5.848800288093347E-002
 -8.563409495037275E-005 -3.415235211035173E-005 -6.360572298610666E-002
 -1.210843181303413E-004 -3.293479158569031E-005 -6.604277790592222E-002
 -1.558974981853400E-004 -3.207447545942859E-005 -6.608013004463077E-002
 -1.888240338333182E-004 -3.098896814677742E-005 -6.468713906565030E-002
  1.521141717219063E-004 -1.310928399280296E-005 -1.915907858100441E-002
  1.850580513659157E-004 -8.892402982700990E-006 -2.987462657886628E-002
  2.186702424793883E-004 -9.497814155560380E-006 -4.096023641089800E-002
  2.538949140764945E-004 -1.249298525975567E-005 -5.079068440761372E-002
  2.899833013900664E-004 -1.578960254969651E-005 -5.850646648454531E-002
  3.263820348563881E-004 -1.897576999266540E-005 -6.363539064666546E-002
  3.627453160374927E-004 -2.191573994877649E-005 -6.608452613205146E-002
  3.985075940636243E-004 -2.466760250236400E-005 -6.613425630294670E-002
  4.323855759074831E-004 -2.779845482417179E-005 -6.475309574246531E-002
  4.786256351232408E-004 -4.536982153412273E-005 -7.236362567317585E-002
  4.831033405005243E-004 -5.451806809291542E-005 -7.481304933466011E-002
  4.853986317782892E-004 -6.367478739340462E-005 -7.236473270420363E-002
  4.458517313255200E-004 -7.439329796895511E-005 -6.475537170177806E-002
  4.117578681359999E-004 -7.073401846501698E-005 -6.613613988509212E-002
  3.757098790331229E-004 -6.682172607793168E-005 -6.608587158337592E-002
  3.389918497504958E-004 -6.325779967253652E-005 -6.363610512062040E-002
  3.021693596390261E-004 -6.013471565002548E-005 -5.850653430050105E-002
  2.655882426497036E-004 -5.735118094414770E-005 -5.079017168448800E-002
  2.298019963792520E-004 -5.453027411098401E-005 -4.095927109349770E-002
  1.955607304583301E-004 -4.961415204933812E-005 -2.987341665591395E-002
  1.619087701751826E-004 -4.020422765144896E-005 -1.915828408747070E-002
  5.114054247969582E-004 -3.660584176869178E-005 -7.581494831571726E-002
  5.545807060868743E-004 -3.799948002328810E-005 -8.914932156020675E-002
  5.962696585548675E-004 -4.054263406648278E-005 -0.100944167830217     
  6.382342192527540E-004 -4.405636851613140E-005 -0.109888996158424     
  6.814715277932977E-004 -4.739541946283240E-005 -0.115464543213077     
  7.268382940717404E-004 -4.780018033519958E-005 -0.117527954849901     
  7.725706418668197E-004 -3.844373716169867E-005 -0.116288492897264     
  8.042995263683252E-004 -8.668969679977153E-006 -0.112317259151055     
  7.707312562863874E-004  3.472910902572895E-005 -0.106895057239141     
  1.035476258702497E-003 -4.356808805550880E-005 -0.110804618610138     
  1.078873808053072E-003 -8.787738667314806E-005 -0.113314487485799     
  1.041279288032475E-003 -1.321614864225695E-004 -0.110805710585446     
  7.826488544864905E-004 -2.044514229977835E-004 -0.106897161279367     
  8.167055840445363E-004 -1.548426586225182E-004 -0.112319352449299     
  7.853755552237112E-004 -1.186480650909676E-004 -0.116290565754851     
  7.399713757951539E-004 -1.026939640876028E-004 -0.117530013458915     
  6.948621316226029E-004 -9.635448339873630E-005 -0.115466596685866     
  6.518114813251005E-004 -9.283822932904314E-005 -0.109891055577743     
  6.099626625636949E-004 -8.942105972492890E-005 -0.100946248052855     
  5.683185692250531E-004 -8.499299217584040E-005 -8.915143851376489E-002
  5.251165380640672E-004 -7.941044082082249E-005 -7.581713160509855E-002
  1.047287854910081E-003 -4.163378968006474E-005 -0.111046116431304     
  1.359483136687005E-003  1.164000818263865E-008 -0.121377469778883     
  1.606055506608429E-003  2.961381370490798E-005 -0.130432930729522     
  1.838111179441871E-003  3.962935595311810E-005 -0.136814760079913     
  2.070262006999400E-003  4.011800816129343E-005 -0.139907960780878     
  2.304373857696347E-003  3.780345812534079E-005 -0.139464416582116     
  2.539516092125407E-003  3.530163872054087E-005 -0.135577675145169     
  2.774625736887008E-003  3.309575018722172E-005 -0.128705774930249     
  3.008694035953072E-003  3.075328135186522E-005 -0.120060829638477     
  3.250030648842539E-003 -4.421587826710730E-005 -0.120761891009641     
  3.252340805143589E-003 -1.128328541464968E-004 -0.123214629822182     
  3.253447268104841E-003 -1.813916001191678E-004 -0.120762962649850     
  3.016355237359102E-003 -2.524326713230910E-004 -0.120062125012491     
  2.782986222468831E-003 -2.506553637495000E-004 -0.128706745439952     
  2.548503759098399E-003 -2.484106537746896E-004 -0.135578561581177     
  2.313917868109426E-003 -2.461662754170353E-004 -0.139465393320812     
  2.080291485077199E-003 -2.434741676865745E-004 -0.139909133248716     
  1.848555295595800E-003 -2.377538492784805E-004 -0.136816183364017     
  1.616843647105010E-003 -2.223171355632831E-004 -0.130434618838797     
  1.370544645668154E-003 -1.871355183798011E-004 -0.121379398820631     
  1.058533158921055E-003 -1.397836635628865E-004 -0.111048216621247     
  3.484200191374249E-003  2.615014188527922E-005 -0.117072096845675     
  3.723782629173884E-003  2.656857216491214E-005 -0.122471700941730     
  3.962264692223201E-003  2.688520065877570E-005 -0.126183667003514     
  4.199400428466618E-003  2.735440775540043E-005 -0.127131111267800     
  4.432634831551491E-003  2.633467368555497E-005 -0.124960189800038     
  4.658799817865229E-003  1.474694658822130E-005 -0.119677977317008     
  4.884457551191539E-003 -3.182927477137325E-005 -0.111622871622393     
  5.162538657825106E-003 -1.509660909028632E-004 -0.101468080508934     
  5.680062124824788E-003 -3.162121076787422E-004 -9.065602779314101E-002
  5.112600065864000E-003 -1.513110943166150E-004 -9.150442265502384E-002
  4.963677416921719E-003 -1.181523579363332E-004 -9.429360904608351E-002
  5.110635243093084E-003 -8.490726709104189E-005 -9.151849872412217E-002
  5.677208500658507E-003  7.856805208317912E-005 -9.068183224128706E-002
  5.161065227564845E-003 -8.762718279802583E-005 -0.101491576280491     
  4.884269731930268E-003 -2.070644330578286E-004 -0.111643532395797     
  4.659829187275742E-003 -2.533207701354278E-004 -0.119695569367188     
  4.434813109942811E-003 -2.639968905544521E-004 -0.124974613013072     
  4.202659035593101E-003 -2.635476834320452E-004 -0.127142386780208     
  3.966534979943726E-003 -2.610865126464925E-004 -0.126191953590218     
  3.728995909446460E-003 -2.582889961584992E-004 -0.122477307795260     
  3.490286434588849E-003 -2.549347340810863E-004 -0.117075470843888     
  5.450068202696130E-003 -5.663040995012996E-005 -8.862867709277947E-002
  4.703588345701641E-003 -2.220444527551970E-004 -9.634617763497122E-002
  4.196329066541210E-003 -3.400980138156358E-004 -0.102163572861672     
  3.741152542943436E-003 -3.848652846182891E-004 -0.104139228113019     
  3.285414743581373E-003 -3.945585806301762E-004 -0.101045477468372     
  2.823495798222418E-003 -3.940145119520876E-004 -9.203690959956201E-002
  2.361186323535363E-003 -3.915222945182480E-004 -7.681249058610931E-002
  1.905905900168133E-003 -3.816645477454762E-004 -5.578325603883150E-002
  1.459140240339250E-003 -3.458008101492887E-004 -3.013253769053063E-002
  9.595283258874914E-004 -1.375592125165917E-004 -1.889842172958789E-003
  9.535960956290061E-004 -9.511354895368546E-005 -1.905833030650110E-003
  9.515831808777515E-004 -5.261939854272260E-005 -1.905532462797595E-003
  1.444767504445697E-003  1.485028562524377E-004 -3.016371746547337E-002
  1.892944630572214E-003  1.776472038987927E-004 -5.581434794125575E-002
  2.349568940689288E-003  1.814774600733389E-004 -7.684346715288810E-002
  2.813150982251072E-003  1.785960741567797E-004 -9.206774412160987E-002
  3.276268955768878E-003  1.743850019478787E-004 -0.101076119698190     
  3.733132341006126E-003  1.605176527346565E-004 -0.104169600980488     
  4.189361311725237E-003  1.121205963662850E-004 -0.102193575472637     
  4.697599934997327E-003 -9.049368027052197E-006 -9.637566114793701E-002
  5.444960039457379E-003 -1.770975983770877E-004 -8.865727373320584E-002
 -5.055193161702828E-003 -5.467224989692324E-005 -8.768551485167900E-002
 -4.289295761367475E-003  1.141014852342676E-004 -9.538199048554920E-002
 -3.765666566227194E-003  2.351639359603273E-004 -0.101181251351456     
 -3.294745987154058E-003  2.823076322883997E-004 -0.103141428452484     
 -2.823269152762719E-003  2.943380732004823E-004 -0.100034412335201     
 -2.345818017267149E-003  2.964680099012076E-004 -9.101429094411877E-002
 -1.868961806240569E-003  2.967022348772727E-004 -7.578004174161401E-002
 -1.401213048471650E-003  2.870636861282369E-004 -5.474396346374406E-002
 -9.429334337038253E-004  2.447003800757722E-004 -2.909295509755721E-002
 -4.284532373284131E-004  2.029007889990027E-005 -8.208518076400050E-004
 -4.270871789183204E-004  1.531863550800502E-008 -8.231731154633347E-004
 -4.284396082092501E-004 -2.025807886234340E-005 -8.208491594358541E-004
 -9.428129126791013E-004 -2.445944065919627E-004 -2.909294222503097E-002
 -1.401014334518306E-003 -2.868605337492275E-004 -5.474393950153705E-002
 -1.868695578856662E-003 -2.963652597462705E-004 -7.578000588503925E-002
 -2.345495055289748E-003 -2.959662309532504E-004 -9.101424137163883E-002
 -2.822900444053913E-003 -2.936458123953280E-004 -0.100034346475518     
 -3.294342516720109E-003 -2.814047675861240E-004 -0.103141342633680     
 -3.765239308333681E-003 -2.340358393887778E-004 -0.101181140231228     
 -4.288855685776220E-003 -1.127387972170880E-004 -9.538184572184744E-002
 -5.054752228641139E-003  5.627360435729731E-005 -8.768532494202530E-002
 -4.934534856707941E-003  2.438786673723861E-004 -9.420344970426740E-002
 -4.656281365486480E-003  1.036703694165048E-006 -9.617278247093874E-002
 -4.934320786808339E-003 -2.418071331171814E-004 -9.420326747623657E-002
 -4.780123588496292E-003  7.808406171635192E-005 -0.101838392262445     
 -4.706989160664696E-003  1.154789661176448E-006 -0.102408240473547     
 -4.779913393945147E-003 -7.577538341243102E-005 -0.101838128379481     
 -4.560759380514637E-003 -2.568319881658274E-005 -0.110705167984278     
 -4.558467065111234E-003  1.271000806900063E-006 -0.110654408735165     
 -4.560557207550892E-003  2.822360021025717E-005 -0.110704798402995     
 -4.326930633927113E-003 -6.307719230931426E-005 -0.118519765297990     
 -4.335441340018744E-003  1.381944263540932E-006 -0.118368784479725     
 -4.326741758535012E-003  6.583869051662294E-005 -0.118519277062888     
 -4.092179297209114E-003 -7.082589793217653E-005 -0.123841794227840     
 -4.097319122601044E-003  1.484899141910930E-006 -0.123695748581387     
 -4.092009061731443E-003  7.379250015516082E-005 -0.123841180479513     
 -3.858678457576361E-003 -7.032962488576792E-005 -0.126047654348003     
 -3.860421086906560E-003  1.577197849885934E-006 -0.125897861620589     
 -3.858532191973522E-003  7.348002602684239E-005 -0.126046912772307     
 -3.626000234199807E-003 -6.888051141716397E-005 -0.125358058697009     
 -3.626207600173049E-003  1.656179980942981E-006 -0.125284061733470     
 -3.625883264505317E-003  7.218807685961285E-005 -0.125357192048693     
 -3.393661124292502E-003 -6.764794078580872E-005 -0.122807014425028     
 -3.393554040275945E-003  1.719172807691836E-006 -0.123257798652633     
 -3.393578766176713E-003  7.108071774012457E-005 -0.122806030368071     
 -3.161496875253889E-003 -6.568352760603414E-005 -0.120258297191495     
 -3.162497540466617E-003  1.763543441139090E-006 -0.121971371601560     
 -3.161454417981290E-003  6.920417461968810E-005 -0.120257202314305     
 -2.701410980943265E-003 -6.707747964001508E-005 -0.123491461215232     
 -2.702307927932993E-003  1.786263084046824E-006 -0.125256130403304     
 -2.701464913131934E-003  7.064190087323802E-005 -0.123490229897325     
 -2.471190806237848E-003 -6.770325061402369E-005 -0.129269036363732     
 -2.471805548714223E-003  1.759187334835967E-006 -0.129762484233988     
 -2.471301002798917E-003  7.121278063924065E-005 -0.129267784980197     
 -2.241296586815302E-003 -6.770787961194947E-005 -0.134994998658701     
 -2.241423845492345E-003  1.702590976902717E-006 -0.134926262404485     
 -2.241468711642807E-003  7.110334633926006E-005 -0.134993741537587     
 -2.011394365662706E-003 -6.796727141248375E-005 -0.138676403662049     