# vtk DataFile Version 3.0
 Cables to test STAP90 for 3T element                                            
ASCII
DATASET UNSTRUCTURED_GRID
 POINTS           4 double
   0.0000000000000000        0.0000000000000000        0.0000000000000000     
   2.0000000000000000       0.50000000000000000        0.0000000000000000     
   0.0000000000000000        1.0000000000000000        0.0000000000000000     
   2.0000000000000000        1.0000000000000000        0.0000000000000000     
 CELLS            2           8
           3           2           0           1
           3           2           1           3
 CELL_TYPES            2
           5           5
 CELL_DATA           2
 POINT_DATA           4
 FIELD Result            2
 Displacement_Load_Case01            3           4 double
   0.0000000000000000        0.0000000000000000        0.0000000000000000     
  -3.8710081010916300E-007  -6.6568327546839498E-006   0.0000000000000000     
   0.0000000000000000        0.0000000000000000        0.0000000000000000     
   1.2348190547683865E-006  -7.0406806168090022E-006   0.0000000000000000     
 Stress_Load_Case01            3           4 double
  -6.3807825842169734       -1.9142347752650934       -38.404804353945877     
   5.8307154931489116       -12.942893627097888       -15.940436714368033     
   4.5105532155812043       -11.750605891710293       -18.369017594395544     
   12.761565168433862       -19.202402176972953       -3.1903912921085222     
