# vtk DataFile Version 3.0
 Bridge                                                                         
  
ASCII
DATASET UNSTRUCTURED_GRID
 POINTS        4085 double
  2.822325103708644E-002   33323826432.2250      -2.149140330293943E-002
 -8.034231944633943E-008   23329921663.6480      -1.637824846076871E-002
 -2.530551186629814E-006 -1.788649478673053E-018 -7.127505215640284E-002
 -6.893011163051556E-003   42366614482.3248      -4.517664963671655E-002
  8.116101288682990E-003 -4.305653322394032E-021 -1.720322773656336E-002
 -1.284286975991311E-002 -1.685280653895489E-003 -0.111050851449289     
 -5.446579477027261E-011   33317889343.3907      -3.797340536674244E-002
 -1.857553214339153E-012   23329921663.6480      -8.034029231186321E-002
  7.063169928961137E-003 -1.788968207471834E-018 -0.167921759508695     
 -9.697172597927834E-003   42393389379.0049      -4.656089460183847E-003
  8.493097338485005E-003 -5.286630533275682E-021 -8.084546936166009E-002
 -1.561488110980244E-010 -2.069246057429644E-003 -7.791728699582953E-002
  3.293146648186486E-011   9497245747.06216       5.964852822855042E-003
  1.622682752341513E-003   9447322729.40189      -9.575565713490845E-002
  1.251940973077516E-002 -6.275992678596158E-018 -0.175899941911577     
  6.685680966041076E-002   24982163334.9787      -4.935178249372167E-003
 -3.914796835508936E-010 -4.974687045794207E-020 -9.714413945409897E-002
 -4.831709935112800E-010 -7.884867727421963E-003 -8.317213176777837E-002
 -4.033187852527439E-002   9465822053.71388       2.176503058633465E-002
 -5.387809916199283E-002   9447322729.40189      -4.255999996718200E-002
 -3.100162729528055E-002 -6.296827094061523E-018 -9.971813576230185E-002
 -5.257949523706769E-011   25036595534.8531      -4.164616240456092E-003
 -1.335332337385189E-009 -3.699049451978860E-020 -4.241712096748401E-002
  3.842252610483582E-002 -5.862985023490977E-003 -6.834150864498698E-002
  5.441074189540165E-002   33248946432.2250      -1.083649964031103E-003
  1.272797543957823E-002   23329921663.6480      -2.669361825701769E-003
 -3.632599466309838E-010 -1.792677698732178E-018 -7.431584309672986E-003
 -9.120426836711250E-009   42324589127.6863      -1.649475307947398E-003
 -5.134926554463149E-002  0.000000000000000E+000  2.346238551421569E-003
 -6.468366714692102E-002  0.000000000000000E+000 -7.341300320747309E-003
 -4.159837158597555E-002   33267445756.5370      -3.616967006892607E-002
  2.258140724272759E-010   23329921663.6480      -1.490635848860825E-002
  5.668791377728538E-009 -1.791680828507201E-018 -0.213066971369112     
  4.709398675807783E-002   42490990462.7406      -1.830565482482946E-002
  6.811325742264926E-002  4.262108358696216E-021 -1.285866717260981E-002
  1.063029347186428E-002  1.668236670230379E-003 -0.226093016068161     
 -2.107280950043318E-009   9497245747.06216      -5.408485352200500E-002
 -5.289067281157278E-008   9447322729.40189      -2.985965863260901E-002
 -6.828781441905693E-002 -6.275992678596158E-018 -0.449408331218694     
 -8.521046471103975E-002   24982163334.9787      -5.194363360209975E-002
 -6.385240311588077E-002  4.974687045794207E-020 -3.321452645634976E-002
  1.541850416737423E-008  7.884867727421963E-003 -0.458031245254714     
  3.869102966965427E-007   9516265640.56758       3.371702886524360E-002
  5.917324771187286E-002   9447322729.40189      -1.712725100056902E-002
  8.994723504225337E-002 -6.263449027872621E-018 -0.571103481650693     
  1.926496123210192E-003   24938870437.2330       2.697648529886433E-002
  3.950952970095622E-009  4.570823102883223E-020 -2.530033287199891E-002
  1.047113089546005E-007  7.244744290426979E-003 -0.573823145109382     
 -9.961237605407774E-002   197143647221.453       0.129814061024455     
 -0.124696340702463        197067591381.740      -7.452949245167537E-003
 -0.129374062466756       9.674918059469379E-018 -0.320809525153316     
  5.010772894403241E-007   216106115620.071       0.128606861453789     
  1.257629386483797E-005  4.839050273970052E-017 -5.714775811736046E-003
  7.377183950681589E-002  2.848684235658530E-004 -0.321696572866969     
  0.131097640970360        197142536833.445       1.268013376436166E-003
 -3.767831903381535E-002   197067591381.740      -7.737940221126393E-004
  6.853476370885903E-007 -9.674972552594856E-018 -8.568278306706931E-004
  1.853341904215910E-005   216090558741.098       1.199034093388927E-003
 -0.178003295946458      -4.839108686423705E-017  4.701897614476221E-004
 -0.251487090347746       2.245165751938374E-004 -9.079149007031852E-004
 -0.688727763738232        9521092341.39334      -1.282462638255677E-004
  3.260701463179712E-005   9447322729.40189       2.125384385276705E-004
  8.944364005576226E-004 -6.260273783529752E-018 -2.121255340628863E-004
 -3.992258661181043E-002   24896778295.5171      -1.342439771179254E-004
 -5.992446330266570E-002 -2.933008522301985E-020 -1.332402879203313E-004
 -1.572452697026107E-002 -4.648811880800509E-003 -2.396083594978362E-004
  3.062110957667244E-008   9447322729.40189      -1.835775802026407E-002
 -1.541228664409099E-006   9447322729.40189      -1.632827081523352E-002
  2.175634292672001E-002 -6.309157258901453E-018 -0.221458302368968     
  2.741728553786728E-002   24870426999.8293      -0.132422713226797     
  1.522745860976038E-002  0.000000000000000E+000 -1.047903405986533E-002
 -1.733271523065962E-008  0.000000000000000E+000 -2.259858035921148E-002
 -4.351772382400340E-007   33248946432.2250      -1.645098725688263E-002
 -3.698219896318233E-002   23329921663.6480      -0.330289556739790     
 -3.652362985436591E-002 -1.792677698732178E-018  2.098146467583621E-003
  2.000956563004202E-002   42324589127.6863      -2.265910675947988E-003
 -5.183021601564673E-008  0.000000000000000E+000 -2.844929061791845E-002
 -1.301328529683257E-006  0.000000000000000E+000 -1.674147276857668E-002
  2.682923828343330E-002   33248946432.2250      -0.264724727921675     
  3.491004604657607E-002   23329921663.6480      -0.132356213637518     
  2.118149840724342E-002 -1.792677698732178E-018  1.071716442958966E-002
 -1.525322966326117E-007   42324589127.6863      -3.782902850279778E-002
 -3.829471896510597E-006  0.000000000000000E+000 -2.319396047906924E-002
 -4.914465388389262E-002  0.000000000000000E+000  -2.07913169067557     
 -4.915423699484286E-002   9447322729.40189       0.267933752552015     
  3.340276264905832E-002   9447322729.40189       1.484532361212268E-002
 -4.632822898716322E-007 -6.309157258901453E-018 -3.521300155398773E-002
 -1.163555924408007E-005   24870426999.8293      -2.753927006645755E-002
  3.415173512639010E-002  0.000000000000000E+000  -8.16440948351344     
  4.731882629825974E-002  0.000000000000000E+000  0.345056406842342     
  3.374914194658332E-002   9447322729.40189       5.792544543626971E-004
 -1.369565757432096E-006   9447322729.40189      -3.419934601376352E-002
 -3.431747696438958E-005 -6.309157258901453E-018 -3.233771789078627E-002
 -7.214639783368973E-002   24870426999.8293       -14.2045289135400     
 -7.476760167441614E-002  0.000000000000000E+000  0.259493853447104     
  7.434483497999379E-002  0.000000000000000E+000  1.625031392101826E-002
 -4.313539422619851E-006   33248946432.2250      -3.368024771396136E-002
 -1.096221092926356E-004   23329921663.6480      -3.781796665216997E-002
  4.406687216006393E-002 -1.792677698732178E-018  -17.4811336250479     
  7.244454300354841E-002   42324589127.6863       6.823945181448494E-002
  7.296934992959334E-002  0.000000000000000E+000  4.251380445867621E-004
 -1.390263784553902E-005  0.000000000000000E+000 -3.336804738971366E-002
 -3.259850973883313E-004   33248946432.2250      -4.384740860098141E-002
 -0.133419926514227        23329921663.6480       -16.7511505046301     
 -0.172156476930912      -1.792677698732178E-018 -0.140866234174618     
  0.478153420941435        42324589127.6863       1.811625483455449E-002
 -5.015409709182621E-005  0.000000000000000E+000 -3.323885979779027E-002
 -1.653694837766453E-003  0.000000000000000E+000 -5.040861423377603E-002
 -2.369270283322688E-002   40922618320.8348       -12.2152195740655     
  0.411171927500405        36327840216.1661      -0.312554837955401     
  -1.24692151099590       0.335081587957575       6.516954108327194E-004
  5.367598995603895E-009   38208083898.6591      -3.322694827008243E-002
  2.617166928869874E-004  0.256656483587703      -5.747490962308593E-002
  0.000000000000000E+000  0.342657345667878       -5.55009946211638     
  0.000000000000000E+000   40922618320.8348      -0.353544009075511     
  0.000000000000000E+000   36327840216.1661       2.048726734234822E-002
  0.000000000000000E+000 -0.335081587957575      -3.339734778354095E-002
  0.000000000000000E+000   38208083898.6591      -6.482697429174264E-002
  0.000000000000000E+000 -0.256656483587703       0.124772066598494     
  0.000000000000000E+000  0.342657345667878      -0.214611540061583     
  0.000000000000000E+000   95004355251.6547       9.596409088406729E-004
  0.000000000000000E+000   84935127890.5060      -3.427549591885259E-002
  0.000000000000000E+000  0.325556459022276      -7.217609006583721E-002
  0.000000000000000E+000   83989175856.1661        2.07540116341293     
  0.000000000000000E+000 -0.248061615130020       6.297644025957462E-003
  0.000000000000000E+000 -0.328819676171096       2.295353849013009E-002
  0.000000000000000E+000   95004355251.6547      -2.311038657288481E-002
  0.000000000000000E+000   84935127890.5061      -8.099251085977498E-002
  0.000000000000000E+000 -0.325556459022276      -0.427567230798734     
  0.000000000000000E+000   83989175856.1662       0.414710092850533     
  0.000000000000000E+000  0.248061615130020       1.769223722863353E-002
  0.000000000000000E+000 -0.328819676171096      -1.532508941370827E-002
  0.000000000000000E+000   3432973662.37334      -8.126954554023720E-002
  0.000000000000000E+000  0.000000000000000E+000 -0.533291902452701     
[...]
 CELL_DATA        2884
 POINT_DATA        4085
 FIELD Result            2
 Displacement_Load_Case01            3        4085 double
 -2.149140330293943E-002 -1.637824846076871E-002 -7.127505215640284E-002
 -4.517664963671655E-002 -1.720322773656336E-002 -0.111050851449289     
 -3.797340536674244E-002 -8.034029231186321E-002 -0.167921759508695     
 -4.656089460183847E-003 -8.084546936166009E-002 -7.791728699582953E-002
  5.964852822855042E-003 -9.575565713490845E-002 -0.175899941911577     
 -4.935178249372167E-003 -9.714413945409897E-002 -8.317213176777837E-002
  2.176503058633465E-002 -4.255999996718200E-002 -9.971813576230185E-002
 -4.164616240456092E-003 -4.241712096748401E-002 -6.834150864498698E-002
 -1.083649964031103E-003 -2.669361825701769E-003 -7.431584309672986E-003
 -1.649475307947398E-003  2.346238551421569E-003 -7.341300320747309E-003
 -3.616967006892607E-002 -1.490635848860825E-002 -0.213066971369112     
 -1.830565482482946E-002 -1.285866717260981E-002 -0.226093016068161     
 -5.408485352200500E-002 -2.985965863260901E-002 -0.449408331218694     
 -5.194363360209975E-002 -3.321452645634976E-002 -0.458031245254714     
  3.371702886524360E-002 -1.712725100056902E-002 -0.571103481650693     
  2.697648529886433E-002 -2.530033287199891E-002 -0.573823145109382     
  0.129814061024455      -7.452949245167537E-003 -0.320809525153316     
  0.128606861453789      -5.714775811736046E-003 -0.321696572866969     
  1.268013376436166E-003 -7.737940221126393E-004 -8.568278306706931E-004
  1.199034093388927E-003  4.701897614476221E-004 -9.079149007031852E-004
 -1.282462638255677E-004  2.125384385276705E-004 -2.121255340628863E-004
 -1.342439771179254E-004 -1.332402879203313E-004 -2.396083594978362E-004
 -1.835775802026407E-002 -1.632827081523352E-002 -0.221458302368968     
 -2.259858035921148E-002 -1.645098725688263E-002 -0.330289556739790     
 -2.844929061791845E-002 -1.674147276857668E-002 -0.264724727921675     
 -3.782902850279778E-002 -2.319396047906924E-002  -2.07913169067557     
 -3.521300155398773E-002 -2.753927006645755E-002  -8.16440948351344     
 -3.419934601376352E-002 -3.233771789078627E-002  -14.2045289135400     
 -3.368024771396136E-002 -3.781796665216997E-002  -17.4811336250479     
 -3.336804738971366E-002 -4.384740860098141E-002  -16.7511505046301     
 -3.323885979779027E-002 -5.040861423377603E-002  -12.2152195740655     
 -3.322694827008243E-002 -5.747490962308593E-002  -5.55009946211638     
 -3.339734778354095E-002 -6.482697429174264E-002  0.124772066598494     
 -3.427549591885259E-002 -7.217609006583721E-002   2.07540116341293     
 -2.311038657288481E-002 -8.099251085977498E-002 -0.427567230798734     
 -1.532508941370827E-002 -8.126954554023720E-002 -0.533291902452701     
 -8.514112966143003E-003 -8.116794230902465E-002 -0.341487057504440     
 -1.602345525028351E-003 -7.316416767899833E-002   2.16754026325546     
 -1.953421081114474E-003 -6.631740931846168E-002  0.218839514206753     
 -2.206952512408778E-003 -5.975399289883355E-002  -5.46272496006684     
 -4.347684267422363E-003 -5.213187216355959E-002  -12.1347252528843     
 -6.637616054670258E-003 -4.540217456666527E-002  -16.6773991590982     
 -8.693188527773022E-003 -3.919774613131605E-002  -17.4142134276294     
 -1.051516922537667E-002 -3.320704425917181E-002  -14.1444000482255     
 -1.239685094082286E-002 -2.711264945798626E-002  -8.11106371944753     
 -1.527448133432851E-002 -2.096203289403299E-002  -2.03262615104234     
 -2.967271675550973E-002 -8.777641870928887E-002  -7.97957778256210     
 -2.435246328561338E-002 -9.269564129244251E-002  -20.2482446438210     
 -2.003584734553392E-002 -9.647833817566255E-002  -32.0926459028490     
 -1.605316804843228E-002 -9.925839046879367E-002  -40.1020243575048     
 -1.224863267592653E-002 -0.100987357672193       -42.3144213998528     
 -8.609056206919949E-003 -0.101691524686719       -38.2381773048854     
 -5.136165153908327E-003 -0.101464320714555       -28.8315620422334     
 -1.768643125299207E-003 -0.100435815600898       -16.5222826762659     
  1.726795036661373E-003 -9.866045026820117E-002  -5.18836722124201     
  8.573145193225325E-004 -9.645316234680182E-002 -0.524169311216870     
 -2.056102199296851E-003 -9.691521419371986E-002 -0.686728610404805     
 -4.584046511612279E-003 -9.714760169116463E-002 -0.449315288017746     
 -6.596260098037790E-003 -9.971555952005434E-002  -5.09586477415629     
 -7.066294307612745E-003 -0.101926143333020       -16.4300997808704     
 -7.039078332168709E-003 -0.103270773425226       -28.7396044748845     
 -6.762063454691080E-003 -0.103626956783264       -38.1465390850386     
 -6.295354923418484E-003 -0.102950788059161       -42.2230080982464     
 -5.637726659506711E-003 -0.101157066794883       -40.0109317251119     
 -4.804630673179787E-003 -9.809387499735611E-002  -32.0017760541464     
 -3.948705982703422E-003 -9.357870447036275E-002  -20.1576983820947     
 -3.530736539672392E-003 -8.760810951048000E-002  -7.88925159107274     
  6.756857159514060E-003 -9.230734334558388E-002  -4.27635054547178     
  8.334164611867310E-003 -8.854010444350290E-002  -14.3227116423422     
  1.007086373531168E-002 -8.413461730326277E-002  -25.1867814243610     
  1.172898390817011E-002 -7.912538425192825E-002  -33.2043801474923     
  1.323411088340217E-002 -7.363662278385126E-002  -36.1662331288627     
  1.457029681136310E-002 -6.779283654938323E-002  -33.3273324651370     
  1.575645520106005E-002 -6.173388086408127E-002  -25.3982150606580     
  1.691772847861593E-002 -5.562531208665873E-002  -14.5533802343520     
  1.850552464933157E-002 -4.948243229714746E-002  -4.42284358284548     
  1.077569430073240E-002 -4.246707140546228E-002 -0.516139089085931     
  4.257648454059586E-003 -4.241282537669116E-002 -0.728745597304105     
 -1.579056075875584E-003 -4.239611150855312E-002 -0.480993861843001     
 -6.998336116636407E-003 -4.874954165049257E-002  -4.38537861936007     
 -8.087195933653151E-003 -5.565756079416475E-002  -14.5097358644289     
 -8.501542245653393E-003 -6.231413405199641E-002  -25.3484450560824     
 -8.654168307400919E-003 -6.858328868017952E-002  -33.2714167938643     
 -8.670273008381940E-003 -7.447883180995830E-002  -36.1041588574348     
 -8.569265192488072E-003 -7.999776689329757E-002  -33.1361932538601     
 -8.335518361176427E-003 -8.512191704298523E-002  -25.1124025221157     
 -7.893343607427749E-003 -8.983491786192684E-002  -14.2422542288725     
 -6.988160727724783E-003 -9.403369478409884E-002  -4.18966630074946     
  1.781288683957679E-002 -3.573447583330929E-002  -4.50789771944549     
  1.552729911074104E-002 -2.993199949461685E-002  -14.7365140300521     
  1.366487614138483E-002 -2.439721256601241E-002  -25.6793478438590     
  1.177361771354008E-002 -1.914640414521591E-002  -33.6925445923113     
  9.725435068830345E-003 -1.434575349843996E-002  -36.5887385843142     
  7.493385663405465E-003 -1.014004353489496E-002  -33.6432944234333     
  5.079097061829115E-003 -6.676399701266472E-003  -25.5885993520604     
  2.555021959583467E-003 -4.148747518902285E-003  -14.6195619405943     
  2.137768431498310E-004 -2.651882162156914E-003  -4.38799071606817     
 -3.827578440506752E-003 -1.002359127120771E-003 -0.450618570770851     
 -4.834007969609021E-003  9.711537593991493E-005 -0.685775379101571     
 -5.320438807570491E-003  1.062285126481630E-003 -0.437505002483467     
 -4.858850225039855E-003  1.600060212485886E-004  -4.38480919152487     
 -6.074605418638517E-003 -2.336365930099947E-003  -14.6132184812651     
 -6.701573778523178E-003 -5.404312525965529E-003  -25.5791452363051     
 -7.147930252268992E-003 -9.014124179285578E-003  -33.6306936929168     
 -7.484338998496483E-003 -1.324076090794137E-002  -36.5730129449957     
 -7.710963853225294E-003 -1.808337870677950E-002  -33.6736862674866     
 -7.800026205841287E-003 -2.354001407828240E-002  -25.6573508504446     
 -7.623680321311836E-003 -2.962126657240802E-002  -14.7113980300220     
 -6.768815221322782E-003 -3.618775127591890E-002  -4.47962990557338     
 -5.075749366253614E-003 -8.501361904089276E-004  -4.39813866272928     
 -8.382620296284617E-003 -7.893986521403391E-004  -14.6326446852001     
 -1.138298413659876E-002 -1.133750525629022E-003  -25.6004033864506     
 -1.432518267164746E-002 -1.787988469526396E-003  -33.6520698107765     
 -1.732502540106675E-002 -2.784479250962422E-003  -36.5959041044313     
 -2.040817365873141E-002 -4.189441381811702E-003  -33.7018113338886     
 -2.358335219501386E-002 -6.032952973084353E-003  -25.6977672803495     
 -2.691624241286748E-002 -8.293836437317148E-003  -14.7732517565428     
 -3.074662367191254E-002 -1.102941604579148E-002  -4.57563567360508     
 -2.825485695306985E-002 -1.437548855488217E-002 -0.645151478134420     
 -2.467485863323101E-002 -1.385669624648123E-002 -0.879123879580062     
 -2.147969741495387E-002 -1.335070147312989E-002 -0.643055965168194     
 -1.673173231013699E-002 -9.308491496142511E-003  -4.58737620356945     
 -1.549380239235767E-002 -6.138778273438021E-003  -14.7836586072541     
 -1.438148914632051E-002 -3.565072540539766E-003  -25.7068787939037     
 -1.325251937975712E-002 -1.599749495940899E-003  -33.7095953037382     
 -1.204169176817111E-002 -1.770995300205978E-004  -36.6023875874481     
 -1.073835581568454E-002  7.617858208799586E-004  -33.6572305134048     
 -9.317612552611503E-003  1.238702210215646E-003  -25.6042591418747     
 -7.661358581199657E-003  1.285408266536636E-003  -14.6351817952101     
 -5.401654542919378E-003  1.056288153296265E-003  -4.39936760117135     
 -3.433430677862798E-002 -1.882580735839343E-002  -4.61224726130636     
 -3.409190119378609E-002 -2.168303715347037E-002  -14.8538074979180     
 -3.434439422319779E-002 -2.415085063015129E-002  -25.8275480369657     
 -3.473743184203781E-002 -2.628686656674671E-002  -33.8838207639077     
 -3.517159662319513E-002 -2.804122371906435E-002  -36.8312282548908     
 -3.560351466068117E-002 -2.932159400857727E-002  -33.9393986873055     
 -3.611239602446571E-002 -2.988059407988461E-002  -25.9366538730514     
 -3.730664037064575E-002 -2.932366404502681E-002  -15.0122226658293     
 -4.134860762704468E-002 -2.799201327531002E-002  -4.81383358556124     
 -3.247394768945844E-002 -3.084166898302874E-002 -0.831967191641515     
 -3.043071279085605E-002 -3.172693254040863E-002  -1.04101806462041     
 -3.177395276288397E-002 -3.251867660920015E-002 -0.830769792771478     
 -3.882022547485989E-002 -3.429300273897400E-002  -4.82290159195821     
 -3.398613068303027E-002 -3.181992258117076E-002  -15.0217289292398     
 -3.178142352745319E-002 -2.964488530474211E-002  -25.9466059827293     
 -3.008374840911149E-002 -2.802737007673234E-002  -33.9497861413978     
 -2.828419898383835E-002 -2.649247299589314E-002  -36.8420650103457     
 -2.630373597915437E-002 -2.470291569839913E-002  -33.8950891825802     
 -2.418789862777842E-002 -2.247607641021145E-002  -25.8392696747316     
 -2.203571945886392E-002 -1.971638650570565E-002  -14.8659565438779     
 -2.000413412010054E-002 -1.643505891554269E-002  -4.62485470694832     
 -3.467916797591684E-002 -3.152279230198650E-002  -4.84414716993407     
 -2.394727057577049E-002 -2.939938237964917E-002  -15.0781558561201     
 -1.604814329956774E-002 -2.749576222164302E-002  -26.0419986836643     
 -8.820355748532276E-003 -2.614405648607860E-002  -34.0863085825524     
 -1.658387811175191E-003 -2.494470126566975E-002  -37.0204653836081     
  5.512509875383978E-003 -2.365409928697882E-002  -34.1144242467038     
  1.265636811535203E-002 -2.220369265691264E-002  -26.0973054132831     
  1.974346462363208E-002 -2.060712068472428E-002  -15.1587107962049     
  2.676322315220699E-002 -1.890113034164574E-002  -4.94719647378077     
  3.197397924416720E-002 -1.919105293795742E-002 -0.867559781574333     
  3.031103061775815E-002 -2.124310756334294E-002  -1.03071622156314     
  2.865409276030161E-002 -2.328073418605964E-002 -0.865644138314070     
  2.020600414374793E-002 -2.709473568735132E-002  -4.95050417662414     
  1.353194397057783E-002 -2.881712971909907E-002  -15.1626124442961     
  6.939518643291692E-003 -3.043715579437562E-002  -26.1017972985740     
  4.365825477732296E-004 -3.191883542979005E-002  -34.1195069106529     
 -5.947052021755117E-003 -3.320329459429072E-002  -37.0261416656087     
 -1.217551340657738E-002 -3.414875535374445E-002  -34.0925721875675     
 -1.832402200148830E-002 -3.443848866109143E-002  -26.0488594621909     
 -2.499743029932082E-002 -3.360828580247932E-002  -15.0856002293559     
 -3.431601953582239E-002 -3.192694772991429E-002  -4.85219299121994     
  4.060521619725792E-002 -1.529677494408706E-002  -4.94804020241789     
  4.742704021195477E-002 -1.345623108929878E-002  -15.1513316868851     
  5.417506188757356E-002 -1.162552833550419E-002  -26.0749332481695     
  6.082137604828733E-002 -9.838099588907948E-003  -34.0723887975724     
  6.730237015117818E-002 -8.178016417558295E-003  -36.9565170845706     
  7.354435100446960E-002 -6.897550856823071E-003  -34.0002427602699     
  7.970181147867722E-002 -6.606885542149209E-003  -25.9361801054167     
  8.701578101331969E-002 -8.218705335841165E-003  -14.9569588133396     
  9.984082070091282E-002 -1.114404710126432E-002  -4.71469262838906     
  8.703747500571710E-002 -6.981998361386307E-003 -0.492361380802466     
  8.290883982749307E-002 -6.532979893051616E-003 -0.587485899654913     
  8.572307255252658E-002 -6.109324281551309E-003 -0.491270394147188     
  9.704965448437258E-002 -3.338703585925651E-003  -4.71576280895476     
  8.316025229880189E-002 -8.211181857090711E-003  -14.9582129560610     
  7.499133317783575E-002 -1.220344215842124E-002  -25.9376175380496     
  6.811904769330633E-002 -1.467130515144965E-002  -34.0018635854957     
  6.130218073143024E-002 -1.647237661599220E-002  -36.9583218601113     
  5.438703699781895E-002 -1.814615221672780E-002  -34.0743762806431     
  4.744749813366782E-002 -1.987448322581870E-002  -26.0771053978679     
  4.054727176027108E-002 -2.167144609947575E-002  -15.1536857706740     
  3.371717158287973E-002 -2.350077307980119E-002  -4.95057995473563     
  9.656894316280079E-002 -3.862457640367373E-003  -4.68604691069999     
  8.047385694996673E-002 -7.036685916035938E-003  -14.8742588859083     
  6.988698821880994E-002 -9.061439186935319E-003  -25.7812669315436     
  6.045349208814592E-002 -9.353596189546927E-003  -33.7618490441491     
  5.093895182513525E-002 -8.835329774982300E-003  -36.6307905710471     
  4.121581223962328E-002 -8.121586759619015E-003  -33.6623126777994     
  3.142733197596879E-002 -7.426428961918434E-003  -25.5911067235113     
  2.174058821030808E-002 -6.601160048957901E-003  -14.6111623295463     
  1.209067507780542E-002 -5.209663986895034E-003  -4.37679397389608     
  1.533080470864457E-003 -3.538439413784694E-004 -2.637478725315978E-003
  1.615810139371758E-003 -1.430527369207387E-004 -2.570633591422320E-003
  1.497770439382946E-003  6.384274303658650E-005 -2.643828482357068E-003
  1.118378383789466E-002  4.280346096514035E-003  -4.37692975439559     
  2.017550521949586E-002  4.826222461191838E-003  -14.6113807348829     
  2.934570945979976E-002  4.510813836717382E-003  -25.5914097019931     
  3.875814615843615E-002  3.843532419684821E-003  -33.6626983814744     
  4.824803056864838E-002  3.041899930871057E-003  -36.6312607679285     
  5.767190420043977E-002  1.963923475021008E-003  -33.7624020278251     
  6.715653279628968E-002  6.622977769325306E-005  -25.7819043694771     
  7.793644439711432E-002 -3.517390119037300E-003  -14.8749791172366     
  9.443570888742604E-002 -8.147570729809050E-003  -4.68685169095561     
 -1.588055707289828E-002 -1.219124538861278E-002  -5.52913391400323     
 -1.364051774533472E-002 -7.500557259163008E-003  -16.3640916989349     
 -1.242198888807786E-002 -3.879729792240109E-003  -27.5521363234366     
 -1.129457920983203E-002 -1.393480369230005E-003  -35.5235334076731     
 -9.972963836391338E-003  2.434285570534074E-004  -38.1732028718412     
 -8.427637365150044E-003  1.262012237501937E-003  -34.8509330004434     
 -6.693793912474939E-003  1.798015711755188E-003  -26.3715680007910     
 -4.810934260997424E-003  1.895329317163282E-003  -15.0046853922934     
 -2.744637263131030E-003  1.523332962803644E-003  -4.48476620279003     
 -2.432794435648814E-004  1.026445379309195E-004 -8.295472808186742E-004
 -2.940944349473371E-004  4.559218152670236E-005 -8.452509935790463E-004
 -2.622487178606217E-004 -1.578900707322544E-005 -8.942373457280359E-004
 -3.139757287366983E-003 -1.004338449986804E-003  -4.48867492562259     
 -6.082994433239728E-003 -1.154119255609807E-003  -15.0126600493412     
 -9.253237607838964E-003 -1.392406532507789E-003  -26.3834581380015     
 -1.266268699018181E-002 -1.936514240000407E-003  -34.8668561659152     
 -1.627017754424852E-002 -2.932898192298419E-003  -38.1930733435106     
 -2.004021508058101E-002 -4.438735551976157E-003  -35.5474058719773     
 -2.400033347123307E-002 -6.416744006953800E-003  -27.5799865389105     
 -2.843711658131088E-002 -8.737158922222238E-003  -16.3959138832008     
 -3.445555262640795E-002 -1.161853989563733E-002  -5.56496299780166     
 -1.892781272571287E-002 -2.067818928841333E-002  -2.19203821209322     
 -2.305706442075341E-002 -2.181365757966122E-002  -2.30759589391547     
 -3.017432323353112E-002 -2.330247373692912E-002  -2.24115137849387     
 -1.790382161149339E-002 -2.681522975877410E-002  -8.28268662129746     
 -2.334557682578650E-002 -2.720350464068349E-002  -8.40972528889448     
 -2.956817664511532E-002 -2.765392362176504E-002  -8.33772568145234     
 -1.652364517345677E-002 -3.278970483190601E-002  -14.3242546869617     
 -2.256546614112743E-002 -3.261202846562733E-002  -14.4592531465575     
 -2.862249033387291E-002 -3.251561871278066E-002  -14.3852415648459     
 -1.496257545887079E-002 -3.867750462106890E-002  -17.6067158676601     
 -2.138946417370500E-002 -3.828267297709460E-002  -17.7531379350385     
 -2.770549943966837E-002 -3.799826868374678E-002  -17.6736648242999     
 -1.328967061850562E-002 -4.480475502248862E-002  -16.8791719303871     
 -2.013191254929948E-002 -4.433152481897507E-002  -17.0327551296581     
 -2.689242428860370E-002 -4.400492811005476E-002  -16.9521793751065     
 -1.148914181571439E-002 -5.143675581758948E-002  -12.3504893047905     
 -1.884336252199580E-002 -5.082705693380312E-002  -12.5146209616483     
 -2.621212302617805E-002 -5.048369861905946E-002  -12.4295072721371     
 -9.185891618329323E-003 -5.863878643909322E-002  -5.68861429526256     
 -1.754861631278228E-002 -5.763808905410012E-002  -5.85928219175111     
 -2.579885369552155E-002 -5.752296506005998E-002  -5.77381486498454     
 -5.066914496281572E-003 -6.605676190162577E-002 -2.120884610820517E-002
 -1.699860611454120E-002 -6.549173776883603E-002 -0.202796389817586     
 -2.545674303157217E-002 -6.496651316977174E-002 -0.112479592382894     
 -7.940680155953487E-003 -7.383040508991585E-002   1.91736634397721     
 -1.572993666747072E-002 -7.369607424012121E-002   1.73346605737644     
 -2.504756032682709E-002 -7.239008659207900E-002   1.82862812789399     
 -9.054402753958017E-003 -8.778836512421687E-002  -8.16310878057241     
 -1.468698751617970E-002 -8.827863614749702E-002  -8.36142522685258     
 -2.197385179437332E-002 -8.871979302277153E-002  -8.24793045265526     
 -8.921366342733645E-003 -9.376506835443944E-002  -20.4384517798749     
 -1.391253342470954E-002 -9.390653684331673E-002  -20.6406363270438     
 -1.932843373718484E-002 -9.366967988195812E-002  -20.5219466009512     
 -8.628087055240380E-003 -9.821139343742216E-002  -32.2922717865842     
 -1.253758565470024E-002 -9.803684855360324E-002  -32.5017351062536     
 -1.645537894309797E-002 -9.748812716858775E-002  -32.3745995234453     
 -8.209008232224807E-003 -0.101204437062841       -40.3090793760164     