# vtk DataFile Version 3.0
 Bridge                                                                         
  
ASCII
DATASET UNSTRUCTURED_GRID
 POINTS        4085 double
   200.000000000000       -10.0000000000000       0.000000000000000E+000
   200.000000000000        10.0000000000000       0.000000000000000E+000
   150.000000000000        10.0000000000000       0.000000000000000E+000
   150.000000000000       -10.0000000000000       0.000000000000000E+000
   100.000000000000        10.0000000000000       0.000000000000000E+000
   100.000000000000       -10.0000000000000       0.000000000000000E+000
   50.0000000000000        10.0000000000000       0.000000000000000E+000
   50.0000000000000       -10.0000000000000       0.000000000000000E+000
  0.000000000000000E+000   10.0000000000000       0.000000000000000E+000
  0.000000000000000E+000  -10.0000000000000       0.000000000000000E+000
  -50.0000000000000        10.0000000000000       0.000000000000000E+000
  -50.0000000000000       -10.0000000000000       0.000000000000000E+000
  -100.000000000000        10.0000000000000       0.000000000000000E+000
  -100.000000000000       -10.0000000000000       0.000000000000000E+000
  -150.000000000000        10.0000000000000       0.000000000000000E+000
  -150.000000000000       -10.0000000000000       0.000000000000000E+000
  -200.000000000000        10.0000000000000       0.000000000000000E+000
  -200.000000000000       -10.0000000000000       0.000000000000000E+000
  -250.000000000000        10.0000000000000       0.000000000000000E+000
  -250.000000000000       -10.0000000000000       0.000000000000000E+000
   250.000000000000       -10.0000000000000       0.000000000000000E+000
   250.000000000000        10.0000000000000       0.000000000000000E+000
   200.000000000000       -5.00000000000000       0.000000000000000E+000
   200.000000000000       0.000000000000000E+000  0.000000000000000E+000
   200.000000000000        5.00000000000000       0.000000000000000E+000
   195.000000000000        10.0000000000000       0.000000000000000E+000
   190.000000000000        10.0000000000000       0.000000000000000E+000
   185.000000000000        10.0000000000000       0.000000000000000E+000
   180.000000000000        10.0000000000000       0.000000000000000E+000
   175.000000000000        10.0000000000000       0.000000000000000E+000
   170.000000000000        10.0000000000000       0.000000000000000E+000
   165.000000000000        10.0000000000000       0.000000000000000E+000
   160.000000000000        10.0000000000000       0.000000000000000E+000
   155.000000000000        10.0000000000000       0.000000000000000E+000
   150.000000000000        5.00000000000000       0.000000000000000E+000
   150.000000000000       0.000000000000000E+000  0.000000000000000E+000
   150.000000000000       -5.00000000000000       0.000000000000000E+000
   155.000000000000       -10.0000000000000       0.000000000000000E+000
   160.000000000000       -10.0000000000000       0.000000000000000E+000
   165.000000000000       -10.0000000000000       0.000000000000000E+000
   170.000000000000       -10.0000000000000       0.000000000000000E+000
   175.000000000000       -10.0000000000000       0.000000000000000E+000
   180.000000000000       -10.0000000000000       0.000000000000000E+000
   185.000000000000       -10.0000000000000       0.000000000000000E+000
   190.000000000000       -10.0000000000000       0.000000000000000E+000
   195.000000000000       -10.0000000000000       0.000000000000000E+000
   145.000000000000        10.0000000000000       0.000000000000000E+000
   140.000000000000        10.0000000000000       0.000000000000000E+000
   135.000000000000        10.0000000000000       0.000000000000000E+000
   130.000000000000        10.0000000000000       0.000000000000000E+000
   125.000000000000        10.0000000000000       0.000000000000000E+000
   120.000000000000        10.0000000000000       0.000000000000000E+000
   115.000000000000        10.0000000000000       0.000000000000000E+000
   110.000000000000        10.0000000000000       0.000000000000000E+000
   105.000000000000        10.0000000000000       0.000000000000000E+000
   100.000000000000        5.00000000000000       0.000000000000000E+000
   100.000000000000       0.000000000000000E+000  0.000000000000000E+000
   100.000000000000       -5.00000000000000       0.000000000000000E+000
   105.000000000000       -10.0000000000000       0.000000000000000E+000
   110.000000000000       -10.0000000000000       0.000000000000000E+000
   115.000000000000       -10.0000000000000       0.000000000000000E+000
   120.000000000000       -10.0000000000000       0.000000000000000E+000
   125.000000000000       -10.0000000000000       0.000000000000000E+000
   130.000000000000       -10.0000000000000       0.000000000000000E+000
   135.000000000000       -10.0000000000000       0.000000000000000E+000
   140.000000000000       -10.0000000000000       0.000000000000000E+000
   145.000000000000       -10.0000000000000       0.000000000000000E+000
   95.0000000000000        10.0000000000000       0.000000000000000E+000
   90.0000000000000        10.0000000000000       0.000000000000000E+000
   85.0000000000000        10.0000000000000       0.000000000000000E+000
   80.0000000000000        10.0000000000000       0.000000000000000E+000
   75.0000000000000        10.0000000000000       0.000000000000000E+000
   70.0000000000000        10.0000000000000       0.000000000000000E+000
   65.0000000000000        10.0000000000000       0.000000000000000E+000
   60.0000000000000        10.0000000000000       0.000000000000000E+000
   55.0000000000000        10.0000000000000       0.000000000000000E+000
   50.0000000000000        5.00000000000000       0.000000000000000E+000
   50.0000000000000       0.000000000000000E+000  0.000000000000000E+000
   50.0000000000000       -5.00000000000000       0.000000000000000E+000
   55.0000000000000       -10.0000000000000       0.000000000000000E+000
   60.0000000000000       -10.0000000000000       0.000000000000000E+000
   65.0000000000000       -10.0000000000000       0.000000000000000E+000
   70.0000000000000       -10.0000000000000       0.000000000000000E+000
   75.0000000000000       -10.0000000000000       0.000000000000000E+000
   80.0000000000000       -10.0000000000000       0.000000000000000E+000
   85.0000000000000       -10.0000000000000       0.000000000000000E+000
   90.0000000000000       -10.0000000000000       0.000000000000000E+000
   95.0000000000000       -10.0000000000000       0.000000000000000E+000
   45.0000000000000        10.0000000000000       0.000000000000000E+000
   40.0000000000000        10.0000000000000       0.000000000000000E+000
   35.0000000000000        10.0000000000000       0.000000000000000E+000
   30.0000000000000        10.0000000000000       0.000000000000000E+000
   25.0000000000000        10.0000000000000       0.000000000000000E+000
   20.0000000000000        10.0000000000000       0.000000000000000E+000
   15.0000000000000        10.0000000000000       0.000000000000000E+000
   10.0000000000000        10.0000000000000       0.000000000000000E+000
   5.00000000000000        10.0000000000000       0.000000000000000E+000
  0.000000000000000E+000   5.00000000000000       0.000000000000000E+000
  0.000000000000000E+000  0.000000000000000E+000  0.000000000000000E+000
  0.000000000000000E+000  -5.00000000000000       0.000000000000000E+000
   5.00000000000000       -10.0000000000000       0.000000000000000E+000
   10.0000000000000       -10.0000000000000       0.000000000000000E+000
   15.0000000000000       -10.0000000000000       0.000000000000000E+000
   20.0000000000000       -10.0000000000000       0.000000000000000E+000
   25.0000000000000       -10.0000000000000       0.000000000000000E+000
   30.0000000000000       -10.0000000000000       0.000000000000000E+000
   35.0000000000000       -10.0000000000000       0.000000000000000E+000
   40.0000000000000       -10.0000000000000       0.000000000000000E+000
   45.0000000000000       -10.0000000000000       0.000000000000000E+000
  -5.00000000000000        10.0000000000000       0.000000000000000E+000
  -10.0000000000000        10.0000000000000       0.000000000000000E+000
  -15.0000000000000        10.0000000000000       0.000000000000000E+000
  -20.0000000000000        10.0000000000000       0.000000000000000E+000
  -25.0000000000000        10.0000000000000       0.000000000000000E+000
  -30.0000000000000        10.0000000000000       0.000000000000000E+000
  -35.0000000000000        10.0000000000000       0.000000000000000E+000
  -40.0000000000000        10.0000000000000       0.000000000000000E+000
  -45.0000000000000        10.0000000000000       0.000000000000000E+000
  -50.0000000000000        5.00000000000000       0.000000000000000E+000
  -50.0000000000000       0.000000000000000E+000  0.000000000000000E+000
  -50.0000000000000       -5.00000000000000       0.000000000000000E+000
  -45.0000000000000       -10.0000000000000       0.000000000000000E+000
  -40.0000000000000       -10.0000000000000       0.000000000000000E+000
  -35.0000000000000       -10.0000000000000       0.000000000000000E+000
  -30.0000000000000       -10.0000000000000       0.000000000000000E+000
  -25.0000000000000       -10.0000000000000       0.000000000000000E+000
  -20.0000000000000       -10.0000000000000       0.000000000000000E+000
  -15.0000000000000       -10.0000000000000       0.000000000000000E+000
  -10.0000000000000       -10.0000000000000       0.000000000000000E+000
  -5.00000000000000       -10.0000000000000       0.000000000000000E+000
  -55.0000000000000        10.0000000000000       0.000000000000000E+000
  -60.0000000000000        10.0000000000000       0.000000000000000E+000
  -65.0000000000000        10.0000000000000       0.000000000000000E+000
  -70.0000000000000        10.0000000000000       0.000000000000000E+000
[...]
 CELL_DATA        2884
 POINT_DATA        4085
 FIELD Result            2
 Displacement_Load_Case01            3        4085 double
 -1.922861327149382E-002 -1.524909646951671E-002 -6.455167800256885E-002
 -4.133680209781858E-002 -1.600097453624765E-002 -0.101850605977982     
 -3.475077328492774E-002 -7.400038814035481E-002 -0.154025828612975     
 -4.190392763368613E-003 -7.443243550920073E-002 -6.995332216991415E-002
  5.277957607239957E-003 -8.754038343053548E-002 -0.161911398943130     
 -5.033681149130931E-003 -8.880775889856538E-002 -7.606227056249219E-002
  1.992326492141539E-002 -3.870433180278785E-002 -9.261769950792140E-002
 -3.764089746863152E-003 -3.858591247306847E-002 -6.374674875821593E-002
 -1.008781391913543E-003 -2.470090040880090E-003 -7.348871770669359E-003
 -1.528185072977314E-003  2.179096654406186E-003 -7.267103955633688E-003
 -3.337193026494642E-002 -1.353741514609384E-002 -0.198155621470271     
 -1.699625160068675E-002 -1.164599302459910E-002 -0.210197523080244     
 -4.999785611784115E-002 -2.708288467879155E-002 -0.416360560079842     
 -4.804089834079997E-002 -3.018889208065765E-002 -0.424371293170272     
  3.120058510647368E-002 -1.547157146395465E-002 -0.529313566769996     
  2.507979914318978E-002 -2.303617463101714E-002 -0.531913403941833     
  0.120196981374760      -6.804523548010853E-003 -0.297083089651773     
  0.119126813998241      -5.194334408955055E-003 -0.297954049283560     
  1.160523400492058E-003 -7.522005540815812E-004 -8.019243207175736E-004
  1.096384415313931E-003  4.590258295955128E-004 -8.523726593646227E-004
 -1.124855097307567E-004  2.074562172858252E-004 -2.059870716309875E-004
 -1.176906411764527E-004 -1.342340562904565E-004 -2.286254945696794E-004
 -1.658184253700531E-002 -1.519998203231028E-002 -0.214388734521291     
 -2.054192483260550E-002 -1.531081700757680E-002 -0.322743989426140     
 -2.596273533103842E-002 -1.557661026559628E-002 -0.256401254467600     
 -3.460344496119080E-002 -2.155212404391119E-002  -2.07515808090706     
 -3.219376239270999E-002 -2.558822957784582E-002  -8.17553680045697     
 -3.125001251083339E-002 -3.002155761953074E-002  -14.2311072131443     
 -3.076302677750926E-002 -3.506281124518470E-002  -17.5171008237790     
 -3.047189901885706E-002 -4.059465932932954E-002  -16.7872080578320     
 -3.035521242735663E-002 -4.660570520330014E-002  -12.2419519734536     
 -3.035209632113283E-002 -5.307534401936671E-002  -5.56114380094596     
 -3.052088262687326E-002 -5.980522019727001E-002  0.129600559383612     
 -3.134154579848653E-002 -6.653153697600064E-002   2.08982834235486     
 -2.113213540305130E-002 -7.459733120911397E-002 -0.415596673336950     
 -1.400689845805561E-002 -7.484556246174746E-002 -0.523077218451671     
 -7.771032218944244E-003 -7.474234992648328E-002 -0.332512282894462     
 -1.398710967382028E-003 -6.740161909796534E-002   2.17638712422444     
 -1.710186450228639E-003 -6.114556307866840E-002  0.218448441700914     
 -1.919714461225397E-003 -5.514705328047671E-002  -5.47864831628159     
 -3.859300880786946E-003 -4.816802812521907E-002  -12.1659916125683     
 -5.931114761378915E-003 -4.200251688780873E-002  -16.7176482656940     
 -7.782591804508868E-003 -3.631121073175460E-002  -17.4540289400391     
 -9.413935600471516E-003 -3.080666232958911E-002  -14.1744824509878     
 -1.109131170578361E-002 -2.519747756500552E-002  -8.12535370156389     
 -1.366028053161540E-002 -1.952339236156102E-002  -2.03146920928418     
 -2.714635211786152E-002 -8.080569493024492E-002  -7.98033988273665     
 -2.227518221505703E-002 -8.528830586276417E-002  -20.2741328125745     
 -1.832570884268555E-002 -8.871670071165808E-002  -32.1434659565287     
 -1.468495653523669E-002 -9.121450820079544E-002  -40.1700876431459     
 -1.121059313920758E-002 -9.273908433402242E-002  -42.3876678897676     
 -7.890416680226591E-003 -9.331586150280580E-002  -38.3033450710566     
 -4.726481503810654E-003 -9.303053023428605E-002  -28.8773100772653     
 -1.666357223398801E-003 -9.200146173955819E-002  -16.5423614897438     
  1.491380776629004E-003 -9.028272234465100E-002  -5.18473934716854     
  6.363190096650064E-004 -8.818310994378578E-002 -0.512490765764178     
 -2.087936734899754E-003 -8.860654214306066E-002 -0.677144873413615     
 -4.480825877150926E-003 -8.881706031071912E-002 -0.441135742695896     
 -6.442482885118823E-003 -9.126413475827946E-002  -5.09902498105806     
 -6.817777214834907E-003 -9.335718928680235E-002  -16.4568685431270     
 -6.753200791296078E-003 -9.465829108993026E-002  -28.7919504451422     
 -6.460242654786854E-003 -9.505492272101182E-002  -38.2182074985417     
 -5.989978689176027E-003 -9.450216949072740E-002  -42.3026625290757     
 -5.340857285834609E-003 -9.291849988930902E-002  -40.0853062910528     
 -4.527202401088869E-003 -9.016260822541089E-002  -32.0588141014559     
 -3.688349243300611E-003 -8.606612909941133E-002  -20.1897084109726     
 -3.242669082322585E-003 -8.062418963244751E-002  -7.89604185627590     
  6.058388858063045E-003 -8.433461838019643E-002  -4.27178576371871     
  7.514992607494803E-003 -8.082515892742485E-002  -14.3404810118233     
  9.104406599764610E-003 -7.674843843656608E-002  -25.2287087266390     
  1.062113180715228E-002 -7.213642061481858E-002  -33.2643753440105     
  1.200090786594467E-002 -6.709892723225781E-002  -36.2334157106555     
  1.322950914142001E-002 -6.174683115771946E-002  -33.3891949552168     
  1.432425478862209E-002 -5.620675961691039E-002  -25.4437569402767     
  1.540139963242218E-002 -5.062995151682381E-002  -14.5762618195203     
  1.688118296567650E-002 -4.502794863120816E-002  -4.42452877985745     
  9.807584609066076E-003 -3.862037602801530E-002 -0.510358190558061     
  3.850482297510022E-003 -3.857317914887485E-002 -0.724011860334581     
 -1.472299093175948E-003 -3.856162584743528E-002 -0.476513509301676     
 -6.419329188181554E-003 -4.436033001449366E-002  -4.39000372114304     
 -7.456038410112868E-003 -5.067474223105569E-002  -14.5359979819831     
 -7.870276261674048E-003 -5.676189123152970E-002  -25.3978037633975     
 -8.046165856306731E-003 -6.249789873830826E-002  -33.3375345419534     
 -8.100021828863888E-003 -6.789812975209385E-002  -36.1760352088523     
 -8.049616500996391E-003 -7.296165591010208E-002  -33.2013184216012     
 -7.880993256993608E-003 -7.767203649046869E-002  -25.1599005644942     
 -7.528490654798433E-003 -8.201282033585890E-002  -14.2660282206860     
 -6.773835145900497E-003 -8.589305689754798E-002  -4.19154939101315     
  1.625336261333824E-002 -3.247200419753590E-002  -4.51081103587296     
  1.414072142777011E-002 -2.719228315986043E-002  -14.7622202067801     
  1.242739783856251E-002 -2.215889522122478E-002  -25.7295474156102     
  1.069249724712563E-002 -1.738439879675906E-002  -33.7610171280166     
  8.816778862395758E-003 -1.302088266061464E-002  -36.6644781030443     
  6.775177137103278E-003 -9.200475331156035E-003  -33.7136635263379     
  4.569188258836812E-003 -6.057368069460963E-003  -25.6424699382334     
  2.265968175507677E-003 -3.769592943417045E-003  -14.6504647774478     
  1.382028490155888E-004 -2.422879687745089E-003  -4.39726008315579     
 -3.566033848807537E-003 -9.227491336666565E-004 -0.451278511280851     
 -4.488192905144554E-003  9.594015590197810E-005 -0.686866537217620     
 -4.927504568691073E-003  9.898001418248031E-004 -0.438194263509598     
 -4.470717978960128E-003  1.767447472757070E-004  -4.39433398505225     
 -5.573073820878874E-003 -2.098578055710156E-003  -14.6446292401537     
 -6.134484449511245E-003 -4.888190896201143E-003  -25.6337718493014     
 -6.533046452945715E-003 -8.166994837729813E-003  -33.7020701882371     
 -6.834457154594223E-003 -1.200681330277019E-002  -36.6500090577815     
 -7.038874235858779E-003 -1.640941111373185E-002  -33.7436656856044     
 -7.120459874162223E-003 -2.137554709946075E-002  -25.7093075742688     
 -6.960205322575543E-003 -2.691769567189184E-002  -14.7391105744861     
 -6.173600484583695E-003 -3.290869347497444E-002  -4.48480097070008     
 -4.696080924274901E-003 -7.714238802985471E-004  -4.40703298402218     
 -7.743286949185486E-003 -7.076502168708342E-004  -14.6625362851202     
 -1.050560670327836E-002 -1.012444783935846E-003  -25.6524269819291     
 -1.321477112346921E-002 -1.598209552239575E-003  -33.7196230040944     
 -1.597847030510189E-002 -2.495577769746053E-003  -36.6677901754535     
 -1.882055900121242E-002 -3.766608207931577E-003  -33.7653877911590     
 -2.174910916552702E-002 -5.439867322675972E-003  -25.7420904986569     
 -2.482480399134031E-002 -7.496491777132321E-003  -14.7922242518694     
 -2.836166478593077E-002 -9.990147660232471E-003  -4.57115136482063     
 -2.609132357733000E-002 -1.304736940023263E-002 -0.630722469590774     
 -2.281561489670387E-002 -1.256822535781078E-002 -0.864856956437840     
 -1.989556298689854E-002 -1.210072680327933E-002 -0.628142733116772     
 -1.554100789449331E-002 -8.400342205624332E-003  -4.58200513445074     
 -1.439483609904310E-002 -5.505408133393122E-003  -14.8018453610285     
 -1.336335694513320E-002 -3.159655081450644E-003  -25.7505141803163     
 -1.231510333653180E-002 -1.373820650026199E-003  -33.7725845451417     
 -1.118983165842633E-002 -8.650721778957728E-005  -36.6737847110985     
 -9.977685382980227E-003  7.573428252458863E-004  -33.7243950424295     
 -8.655493052113963E-003  1.178455813541251E-003  -25.6559926539903     
 -7.113645900675242E-003  1.207033214707110E-003  -14.6648833007264     
 -5.011659451364497E-003  9.874275982002623E-004  -4.40817068268663     
 -3.167497578095566E-002 -1.712436828089023E-002  -4.60568989183787     
 -3.145151375908171E-002 -1.972956695069220E-002  -14.8676710608880     
 -3.168673021252630E-002 -2.197572515168776E-002  -25.8630244674343     
 -3.205311231280884E-002 -2.391674160864918E-002  -33.9343671445735     
 -3.245873950657922E-002 -2.550715833491329E-002  -36.8857164375575     
 -3.286348303054209E-002 -2.666216492785334E-002  -33.9852584107119     
 -3.334064070432113E-002 -2.715345828541071E-002  -25.9630214956879     
 -3.445317506481956E-002 -2.661649729962014E-002  -15.0130857132116     
 -3.820205393780309E-002 -2.536769559361077E-002  -4.79117740095778     
 -3.000564392364407E-002 -2.799203242023235E-002 -0.799417992479594     
 -2.812119559764657E-002 -2.881158352731209E-002  -1.00867583523522     
 -2.937049839385747E-002 -2.954476258488581E-002 -0.797915266041296     
 -3.591087647800426E-002 -3.120068818679065E-002  -4.79959579535411     
 -3.144996541787432E-002 -2.892880877474813E-002  -15.0219053102159     
 -2.942109749393791E-002 -2.693771329619843E-002  -25.9722492918026     
 -2.786029588740888E-002 -2.546689151209995E-002  -33.9948847780239     
 -2.620405515880063E-002 -2.407634700543712E-002  -36.8957541570616     
 -2.437923537220335E-002 -2.245338617318633E-002  -33.9448000703696     
 -2.242796630739284E-002 -2.042846637774093E-002  -25.8738723311271     
 -2.044180954977666E-002 -1.791260242450236E-002  -14.8789102290356     
 -1.856579801213326E-002 -1.491552969029917E-002  -4.61734878599995     
 -3.204965098992123E-002 -2.862211051761701E-002  -4.81975783587581     
 -2.212694839716699E-002 -2.666059430565262E-002  -15.0747771328822     
 -1.482476382029587E-002 -2.490750648999643E-002  -26.0610543474978     
 -8.142904284221094E-003 -2.366963035206083E-002  -34.1214324641226     
 -1.521008790967198E-003 -2.257676106966832E-002  -37.0606528811230     
  5.110086103391517E-003 -2.140299777385452E-002  -34.1471734442679     
  1.171708793294886E-002 -2.008443556896472E-002  -26.1117679765318     
  1.827248749060055E-002 -1.863324577982564E-002  -15.1488343021649     
  2.476652343800007E-002 -1.708300246162545E-002  -4.91487345151894     
  2.961724059741494E-002 -1.738145135000231E-002 -0.826247954194710     
  2.810719468447776E-002 -1.928070997114733E-002 -0.989654902925034     
  2.660270220276193E-002 -2.116678808741452E-002 -0.824271921409736     
  1.880984978777138E-002 -2.466738215154240E-002  -4.91801243084496     
  1.262814722018833E-002 -2.623291615889612E-002  -15.1525176243435     
  6.521002771713419E-003 -2.770583854766910E-002  -26.1159923524464     
  4.957110755537588E-004 -2.905333466506876E-002  -34.1519392940143     
 -5.420125122052151E-003 -3.022140995984196E-002  -37.0659628654023     
 -1.119330420244733E-002 -3.107933456267114E-002  -34.1272807694492     
 -1.689342716289415E-002 -3.133449258070729E-002  -26.0674500347320     
 -2.308016298340786E-002 -3.055774137154205E-002  -15.0817077304428     
 -3.171550802875029E-002 -2.899833424432563E-002  -4.82723975099899     
  3.757430139148307E-002 -1.380945473811910E-002  -4.91626735421932     
  4.388790101287011E-002 -1.213887260201846E-002  -15.1428102746824     
  5.013444927243468E-002 -1.047767022799140E-002  -26.0917468888850     
  5.628810570492433E-002 -8.856142507999066E-003  -34.1086125533993     
  6.228997186086375E-002 -7.351485093622305E-003  -37.0013658857596     
  6.807181191472883E-002 -6.196635379969446E-003  -34.0412149693968     
  7.377666939254952E-002 -5.955914739681078E-003  -25.9622066787459     
  8.055360418982273E-002 -7.473814934060999E-003  -14.9615468568228     
  9.243485944929486E-002 -1.020442602321052E-002  -4.69907400545992     
  8.059827238383828E-002 -6.368523929220788E-003 -0.468922986183431     
  7.679150428555442E-002 -5.952597469489132E-003 -0.564206818418022     
  7.941309531217676E-002 -5.559959295262895E-003 -0.467823696923953     
  8.992145968872951E-002 -2.975791441176042E-003  -4.70011783498995     
  7.707102561811061E-002 -7.464995879831481E-003  -14.9627641592015     
  6.951552144220875E-002 -1.113583850799254E-002  -25.9635969545565     
  6.315932554172007E-002 -1.339241809425327E-002  -34.0427782038218     
  5.685318517813087E-002 -1.502930303048443E-002  -37.0031026990450     
  5.045478649858828E-002 -1.654664619578769E-002  -34.1105216948077     
  4.403253754832016E-002 -1.811345605115524E-002  -26.0938302708725     
  3.764543527628252E-002 -1.974337347825885E-002  -15.1450652668322     
  3.132198022190240E-002 -2.140343642364523E-002  -4.91869752981550     
  8.941128185907907E-002 -3.493906421878131E-003  -4.67327011611774     
  7.450750477272566E-002 -6.447540442592224E-003  -14.8857958304767     
  6.470479492468756E-002 -8.336238869328641E-003  -25.8192484471374     
  5.597063092040719E-002 -8.619892497666176E-003  -33.8203215210137     
  4.716208573893722E-002 -8.152043521075370E-003  -36.6988580432695     
  3.816098221827346E-002 -7.501573979889068E-003  -33.7272866972137     
  2.909947946187501E-002 -6.866120407671135E-003  -25.6416495282081     
  2.013075868901370E-002 -6.108353481831042E-003  -14.6404364486987     
  1.119187413361314E-002 -4.826342594109245E-003  -4.38560511305152     
  1.434419352204944E-003 -3.428634522750954E-004 -2.579663042743892E-003
  1.518926624916977E-003 -1.383734031276434E-004 -2.512610500313245E-003
  1.401308455647709E-003  6.243032822545753E-005 -2.585963697786213E-003
  1.036295399117852E-002  3.960844616879610E-003  -4.38573876092980     
  1.870204370325006E-002  4.469606957606326E-003  -14.6406511262502     
  2.720097505329246E-002  4.185530803350691E-003  -25.6419472760718     
  3.592156044746509E-002  3.577740568527471E-003  -33.7276655831861     
  4.471270368449899E-002  2.846690238843818E-003  -36.6993199123372     
  5.344206367007840E-002  1.860835531349708E-003  -33.8208645963268     
  6.222709622175200E-002  1.169447828731427E-004  -25.8198744607349     
  7.221080715687460E-002 -3.187173976781042E-003  -14.8865030622517     
  8.748899305411362E-002 -7.459747413680083E-003  -4.67406037549502     
 -1.421245040205985E-002 -1.132571119295586E-002  -5.53384279139736     
 -1.222774000326154E-002 -6.979011977285175E-003  -16.3923966698788     
 -1.116047733595782E-002 -3.623301046655627E-003  -27.6052420234562     
 -1.017055590146008E-002 -1.315594107602941E-003  -35.5948220462596     
 -8.999154985259945E-003  2.047077640035081E-004  -38.2513855231253     
 -7.619421560417430E-003  1.149803484364488E-003  -34.9231932016933     
 -6.063066584701081E-003  1.645420730226925E-003  -26.4267084564764     
 -4.365264635556538E-003  1.734283663216740E-003  -15.0362768697902     
 -2.493307217549101E-003  1.392223528298500E-003  -4.49428820131686     
 -2.285733170847607E-004  9.905943767522315E-005 -8.218961029913053E-004
 -2.793039611066217E-004  4.287507517752324E-005 -8.370066507937341E-004
 -2.471021269754330E-004 -1.782740359885151E-005 -8.854664775774997E-004
 -2.856922461004348E-003 -9.041362698456517E-004  -4.49794920299475     
 -5.542893143884764E-003 -1.034217170914700E-003  -15.0437523179971     
 -8.438238374646006E-003 -1.251765301126139E-003  -26.4378550053996     
 -1.155508529290887E-002 -1.755562899688208E-003  -34.9381227311974     
 -1.485674059060237E-002 -2.680866067554449E-003  -38.2700165902307     
 -1.831120064795863E-002 -4.082337661854977E-003  -35.6172064082808     
 -2.194343582142877E-002 -5.928902948463544E-003  -27.6313570450801     
 -2.601352601646404E-002 -8.104668355694221E-003  -16.4222362750739     
 -3.152814764958207E-002 -1.080965295136641E-002  -5.56744086327486     
 -1.709632720081037E-002 -1.927278637561946E-002  -2.19046414690907     
 -2.096093742956007E-002 -2.029889456393351E-002  -2.30546787850935     
 -2.753669893005072E-002 -2.165570132085128E-002  -2.23815375078547     
 -1.618324858972360E-002 -2.493465829175216E-002  -8.29649148936520     
 -2.122575051517147E-002 -2.528996400018384E-002  -8.42290454474352     
 -2.697673716611759E-002 -2.569749118485423E-002  -8.34993376261886     
 -1.494750644143537E-002 -3.043417549652807E-002  -14.3537791249515     
 -2.052098273906708E-002 -3.027561369866274E-002  -14.4880762695130     
 -2.610818163867848E-002 -3.018735070393395E-002  -14.4129984034107     
 -1.354370287254090E-002 -3.584341641066350E-002  -17.6459072591105     
 -1.945701893822501E-002 -3.548721281389101E-002  -17.7915568284834     
 -2.526961260272084E-002 -3.522888462916629E-002  -17.7109165423528     
 -1.203429593879638E-002 -4.146274960258166E-002  -16.9187268499827     
 -1.831898432379254E-002 -4.103450816152886E-002  -17.0714593456286     
 -2.452944245418818E-002 -4.073830761157467E-002  -16.9896225787623     
 -1.040463481075394E-002 -4.753728330951206E-002  -12.3809995017307     
 -1.715230603474528E-002 -4.698321236450728E-002  -12.5442075707489     
 -2.391402949442104E-002 -4.667215807482367E-002  -12.4577348367240     
 -8.309639063664337E-003 -5.412873379128744E-002  -5.70371423250929     
 -1.598009884714558E-002 -5.321529805118232E-002  -5.87337779531413     
 -2.354700332370532E-002 -5.311545565077407E-002  -5.78645888414910     
 -4.541512576862629E-003 -6.091307442404947E-002 -2.071657915368108E-002
 -1.549486043544541E-002 -6.040257221827535E-002 -0.201227467427625     
 -2.324845571261571E-002 -5.992820590797217E-002 -0.109361685735872     
 -7.207987965987830E-003 -6.802123819328763E-002   1.92716328799944     
 -1.435307164405275E-002 -6.791304244124084E-002   1.74442763055670     
 -2.289119602742071E-002 -6.672217004745400E-002   1.84123904288306     
 -8.296981550854654E-003 -8.080315477578678E-002  -8.16888068375288     
 -1.344816590974091E-002 -8.125705951817599E-002  -8.36594279903305     
 -2.010826463229711E-002 -8.166681562779245E-002  -8.25065448156792     
 -8.215737904199388E-003 -8.625100114130681E-002  -20.4694297897562     
 -1.276473910663685E-002 -8.638946337853197E-002  -20.6703441243249     
 -1.770108716158491E-002 -8.617783320825299E-002  -20.5498282792456     
 -7.988643278946099E-003 -9.028415108756539E-002  -32.3482694086975     
 -1.153356621680534E-002 -9.013435445964441E-002  -32.5564501666613     
 -1.508596007084398E-002 -8.963830990254246E-002  -32.4274486008493     
 -7.644861239062239E-003 -9.297509639440393E-002  -40.3824019669148     