# vtk DataFile Version 3.0
 Bridge                                                                         
  
ASCII
DATASET UNSTRUCTURED_GRID
 POINTS        4085 double
   200.000000000000       -10.0000000000000       0.000000000000000E+000
   200.000000000000        10.0000000000000       0.000000000000000E+000
   150.000000000000        10.0000000000000       0.000000000000000E+000
   150.000000000000       -10.0000000000000       0.000000000000000E+000
   100.000000000000        10.0000000000000       0.000000000000000E+000
   100.000000000000       -10.0000000000000       0.000000000000000E+000
   50.0000000000000        10.0000000000000       0.000000000000000E+000
   50.0000000000000       -10.0000000000000       0.000000000000000E+000
  0.000000000000000E+000   10.0000000000000       0.000000000000000E+000
  0.000000000000000E+000  -10.0000000000000       0.000000000000000E+000
  -50.0000000000000        10.0000000000000       0.000000000000000E+000
  -50.0000000000000       -10.0000000000000       0.000000000000000E+000
  -100.000000000000        10.0000000000000       0.000000000000000E+000
  -100.000000000000       -10.0000000000000       0.000000000000000E+000
  -150.000000000000        10.0000000000000       0.000000000000000E+000
  -150.000000000000       -10.0000000000000       0.000000000000000E+000
  -200.000000000000        10.0000000000000       0.000000000000000E+000
  -200.000000000000       -10.0000000000000       0.000000000000000E+000
  -250.000000000000        10.0000000000000       0.000000000000000E+000
  -250.000000000000       -10.0000000000000       0.000000000000000E+000
   250.000000000000       -10.0000000000000       0.000000000000000E+000
   250.000000000000        10.0000000000000       0.000000000000000E+000
   200.000000000000       -5.00000000000000       0.000000000000000E+000
   200.000000000000       0.000000000000000E+000  0.000000000000000E+000
   200.000000000000        5.00000000000000       0.000000000000000E+000
   195.000000000000        10.0000000000000       0.000000000000000E+000
   190.000000000000        10.0000000000000       0.000000000000000E+000
   185.000000000000        10.0000000000000       0.000000000000000E+000
   180.000000000000        10.0000000000000       0.000000000000000E+000
   175.000000000000        10.0000000000000       0.000000000000000E+000
   170.000000000000        10.0000000000000       0.000000000000000E+000
   165.000000000000        10.0000000000000       0.000000000000000E+000
   160.000000000000        10.0000000000000       0.000000000000000E+000
   155.000000000000        10.0000000000000       0.000000000000000E+000
   150.000000000000        5.00000000000000       0.000000000000000E+000
   150.000000000000       0.000000000000000E+000  0.000000000000000E+000
   150.000000000000       -5.00000000000000       0.000000000000000E+000
   155.000000000000       -10.0000000000000       0.000000000000000E+000
   160.000000000000       -10.0000000000000       0.000000000000000E+000
   165.000000000000       -10.0000000000000       0.000000000000000E+000
   170.000000000000       -10.0000000000000       0.000000000000000E+000
   175.000000000000       -10.0000000000000       0.000000000000000E+000
   180.000000000000       -10.0000000000000       0.000000000000000E+000
   185.000000000000       -10.0000000000000       0.000000000000000E+000
   190.000000000000       -10.0000000000000       0.000000000000000E+000
   195.000000000000       -10.0000000000000       0.000000000000000E+000
   145.000000000000        10.0000000000000       0.000000000000000E+000
   140.000000000000        10.0000000000000       0.000000000000000E+000
   135.000000000000        10.0000000000000       0.000000000000000E+000
   130.000000000000        10.0000000000000       0.000000000000000E+000
   125.000000000000        10.0000000000000       0.000000000000000E+000
   120.000000000000        10.0000000000000       0.000000000000000E+000
   115.000000000000        10.0000000000000       0.000000000000000E+000
   110.000000000000        10.0000000000000       0.000000000000000E+000
   105.000000000000        10.0000000000000       0.000000000000000E+000
   100.000000000000        5.00000000000000       0.000000000000000E+000
   100.000000000000       0.000000000000000E+000  0.000000000000000E+000
   100.000000000000       -5.00000000000000       0.000000000000000E+000
   105.000000000000       -10.0000000000000       0.000000000000000E+000
   110.000000000000       -10.0000000000000       0.000000000000000E+000
   115.000000000000       -10.0000000000000       0.000000000000000E+000
   120.000000000000       -10.0000000000000       0.000000000000000E+000
   125.000000000000       -10.0000000000000       0.000000000000000E+000
   130.000000000000       -10.0000000000000       0.000000000000000E+000
   135.000000000000       -10.0000000000000       0.000000000000000E+000
   140.000000000000       -10.0000000000000       0.000000000000000E+000
   145.000000000000       -10.0000000000000       0.000000000000000E+000
   95.0000000000000        10.0000000000000       0.000000000000000E+000
   90.0000000000000        10.0000000000000       0.000000000000000E+000
   85.0000000000000        10.0000000000000       0.000000000000000E+000
   80.0000000000000        10.0000000000000       0.000000000000000E+000
   75.0000000000000        10.0000000000000       0.000000000000000E+000
   70.0000000000000        10.0000000000000       0.000000000000000E+000
   65.0000000000000        10.0000000000000       0.000000000000000E+000
   60.0000000000000        10.0000000000000       0.000000000000000E+000
   55.0000000000000        10.0000000000000       0.000000000000000E+000
   50.0000000000000        5.00000000000000       0.000000000000000E+000
   50.0000000000000       0.000000000000000E+000  0.000000000000000E+000
   50.0000000000000       -5.00000000000000       0.000000000000000E+000
   55.0000000000000       -10.0000000000000       0.000000000000000E+000
   60.0000000000000       -10.0000000000000       0.000000000000000E+000
   65.0000000000000       -10.0000000000000       0.000000000000000E+000
   70.0000000000000       -10.0000000000000       0.000000000000000E+000
   75.0000000000000       -10.0000000000000       0.000000000000000E+000
   80.0000000000000       -10.0000000000000       0.000000000000000E+000
   85.0000000000000       -10.0000000000000       0.000000000000000E+000
   90.0000000000000       -10.0000000000000       0.000000000000000E+000
   95.0000000000000       -10.0000000000000       0.000000000000000E+000
   45.0000000000000        10.0000000000000       0.000000000000000E+000
   40.0000000000000        10.0000000000000       0.000000000000000E+000
   35.0000000000000        10.0000000000000       0.000000000000000E+000
   30.0000000000000        10.0000000000000       0.000000000000000E+000
   25.0000000000000        10.0000000000000       0.000000000000000E+000
   20.0000000000000        10.0000000000000       0.000000000000000E+000
   15.0000000000000        10.0000000000000       0.000000000000000E+000
   10.0000000000000        10.0000000000000       0.000000000000000E+000
   5.00000000000000        10.0000000000000       0.000000000000000E+000
  0.000000000000000E+000   5.00000000000000       0.000000000000000E+000
  0.000000000000000E+000  0.000000000000000E+000  0.000000000000000E+000
  0.000000000000000E+000  -5.00000000000000       0.000000000000000E+000
   5.00000000000000       -10.0000000000000       0.000000000000000E+000
   10.0000000000000       -10.0000000000000       0.000000000000000E+000
   15.0000000000000       -10.0000000000000       0.000000000000000E+000
   20.0000000000000       -10.0000000000000       0.000000000000000E+000
   25.0000000000000       -10.0000000000000       0.000000000000000E+000
   30.0000000000000       -10.0000000000000       0.000000000000000E+000
   35.0000000000000       -10.0000000000000       0.000000000000000E+000
   40.0000000000000       -10.0000000000000       0.000000000000000E+000
   45.0000000000000       -10.0000000000000       0.000000000000000E+000
  -5.00000000000000        10.0000000000000       0.000000000000000E+000
  -10.0000000000000        10.0000000000000       0.000000000000000E+000
  -15.0000000000000        10.0000000000000       0.000000000000000E+000
  -20.0000000000000        10.0000000000000       0.000000000000000E+000
  -25.0000000000000        10.0000000000000       0.000000000000000E+000
  -30.0000000000000        10.0000000000000       0.000000000000000E+000
  -35.0000000000000        10.0000000000000       0.000000000000000E+000
  -40.0000000000000        10.0000000000000       0.000000000000000E+000
  -45.0000000000000        10.0000000000000       0.000000000000000E+000
  -50.0000000000000        5.00000000000000       0.000000000000000E+000
  -50.0000000000000       0.000000000000000E+000  0.000000000000000E+000
  -50.0000000000000       -5.00000000000000       0.000000000000000E+000
  -45.0000000000000       -10.0000000000000       0.000000000000000E+000
  -40.0000000000000       -10.0000000000000       0.000000000000000E+000
  -35.0000000000000       -10.0000000000000       0.000000000000000E+000
  -30.0000000000000       -10.0000000000000       0.000000000000000E+000
  -25.0000000000000       -10.0000000000000       0.000000000000000E+000
  -20.0000000000000       -10.0000000000000       0.000000000000000E+000
  -15.0000000000000       -10.0000000000000       0.000000000000000E+000
  -10.0000000000000       -10.0000000000000       0.000000000000000E+000
  -5.00000000000000       -10.0000000000000       0.000000000000000E+000
  -55.0000000000000        10.0000000000000       0.000000000000000E+000
  -60.0000000000000        10.0000000000000       0.000000000000000E+000
  -65.0000000000000        10.0000000000000       0.000000000000000E+000
  -70.0000000000000        10.0000000000000       0.000000000000000E+000
[...]
 CELL_DATA        2884
 POINT_DATA        4085
 FIELD Result            2
 Displacement_Load_Case01            3        4085 double
  0.000000000000000E+000  0.000000000000000E+000  -409000.000000000     
  0.000000000000000E+000  0.000000000000000E+000  -409000.000000000     
  0.000000000000000E+000  0.000000000000000E+000  -330000.000000000     
  0.000000000000000E+000  0.000000000000000E+000  -330000.000000000     
  0.000000000000000E+000  0.000000000000000E+000  -409000.000000000     
  0.000000000000000E+000  0.000000000000000E+000  -409000.000000000     
  0.000000000000000E+000  0.000000000000000E+000  -330000.000000000     
  0.000000000000000E+000  0.000000000000000E+000  -330000.000000000     
  0.000000000000000E+000  0.000000000000000E+000  -1860000.00000000     
  0.000000000000000E+000  0.000000000000000E+000  -1860000.00000000     
  0.000000000000000E+000  0.000000000000000E+000  -330000.000000000     
  0.000000000000000E+000  0.000000000000000E+000  -330000.000000000     
  0.000000000000000E+000  0.000000000000000E+000  -409000.000000000     
  0.000000000000000E+000  0.000000000000000E+000  -409000.000000000     
  0.000000000000000E+000  0.000000000000000E+000  -330000.000000000     
  0.000000000000000E+000  0.000000000000000E+000  -330000.000000000     
  0.000000000000000E+000  0.000000000000000E+000  -409000.000000000     
  0.000000000000000E+000  0.000000000000000E+000  -409000.000000000     
  0.000000000000000E+000  0.000000000000000E+000  -578000.000000000     
  0.000000000000000E+000  0.000000000000000E+000  -578000.000000000     
  0.000000000000000E+000  0.000000000000000E+000  -578000.000000000     
  0.000000000000000E+000  0.000000000000000E+000  -578000.000000000     
  0.000000000000000E+000  0.000000000000000E+000  -580000.000000000     
  0.000000000000000E+000  0.000000000000000E+000  -580000.000000000     
  0.000000000000000E+000  0.000000000000000E+000  -580000.000000000     
  0.000000000000000E+000  0.000000000000000E+000  -290000.000000000     
  0.000000000000000E+000  0.000000000000000E+000  -290000.000000000     
  0.000000000000000E+000  0.000000000000000E+000  -290000.000000000     
  0.000000000000000E+000  0.000000000000000E+000  -290000.000000000     
  0.000000000000000E+000  0.000000000000000E+000  -290000.000000000     
  0.000000000000000E+000  0.000000000000000E+000  -290000.000000000     
  0.000000000000000E+000  0.000000000000000E+000  -290000.000000000     
  0.000000000000000E+000  0.000000000000000E+000  -290000.000000000     
  0.000000000000000E+000  0.000000000000000E+000  -290000.000000000     
  0.000000000000000E+000  0.000000000000000E+000  -580000.000000000     
  0.000000000000000E+000  0.000000000000000E+000  -580000.000000000     
  0.000000000000000E+000  0.000000000000000E+000  -580000.000000000     
  0.000000000000000E+000  0.000000000000000E+000  -290000.000000000     
  0.000000000000000E+000  0.000000000000000E+000  -290000.000000000     
  0.000000000000000E+000  0.000000000000000E+000  -290000.000000000     
  0.000000000000000E+000  0.000000000000000E+000  -290000.000000000     
  0.000000000000000E+000  0.000000000000000E+000  -290000.000000000     
  0.000000000000000E+000  0.000000000000000E+000  -290000.000000000     
  0.000000000000000E+000  0.000000000000000E+000  -290000.000000000     
  0.000000000000000E+000  0.000000000000000E+000  -290000.000000000     
  0.000000000000000E+000  0.000000000000000E+000  -290000.000000000     
  0.000000000000000E+000  0.000000000000000E+000  -290000.000000000     
  0.000000000000000E+000  0.000000000000000E+000  -290000.000000000     
  0.000000000000000E+000  0.000000000000000E+000  -290000.000000000     
  0.000000000000000E+000  0.000000000000000E+000  -290000.000000000     
  0.000000000000000E+000  0.000000000000000E+000  -290000.000000000     
  0.000000000000000E+000  0.000000000000000E+000  -290000.000000000     
  0.000000000000000E+000  0.000000000000000E+000  -290000.000000000     
  0.000000000000000E+000  0.000000000000000E+000  -290000.000000000     
  0.000000000000000E+000  0.000000000000000E+000  -290000.000000000     
  0.000000000000000E+000  0.000000000000000E+000  -580000.000000000     
  0.000000000000000E+000  0.000000000000000E+000  -580000.000000000     
  0.000000000000000E+000  0.000000000000000E+000  -580000.000000000     
  0.000000000000000E+000  0.000000000000000E+000  -290000.000000000     
  0.000000000000000E+000  0.000000000000000E+000  -290000.000000000     
  0.000000000000000E+000  0.000000000000000E+000  -290000.000000000     
  0.000000000000000E+000  0.000000000000000E+000  -290000.000000000     
  0.000000000000000E+000  0.000000000000000E+000  -290000.000000000     
  0.000000000000000E+000  0.000000000000000E+000  -290000.000000000     
  0.000000000000000E+000  0.000000000000000E+000  -290000.000000000     
  0.000000000000000E+000  0.000000000000000E+000  -290000.000000000     
  0.000000000000000E+000  0.000000000000000E+000  -290000.000000000     
  0.000000000000000E+000  0.000000000000000E+000  -290000.000000000     
  0.000000000000000E+000  0.000000000000000E+000  -290000.000000000     
  0.000000000000000E+000  0.000000000000000E+000  -290000.000000000     
  0.000000000000000E+000  0.000000000000000E+000  -290000.000000000     
  0.000000000000000E+000  0.000000000000000E+000  -290000.000000000     
  0.000000000000000E+000  0.000000000000000E+000  -290000.000000000     
  0.000000000000000E+000  0.000000000000000E+000  -290000.000000000     
  0.000000000000000E+000  0.000000000000000E+000  -290000.000000000     
  0.000000000000000E+000  0.000000000000000E+000  -290000.000000000     
  0.000000000000000E+000  0.000000000000000E+000  -580000.000000000     
  0.000000000000000E+000  0.000000000000000E+000  -580000.000000000     
  0.000000000000000E+000  0.000000000000000E+000  -580000.000000000     
  0.000000000000000E+000  0.000000000000000E+000  -290000.000000000     
  0.000000000000000E+000  0.000000000000000E+000  -290000.000000000     
  0.000000000000000E+000  0.000000000000000E+000  -290000.000000000     
  0.000000000000000E+000  0.000000000000000E+000  -290000.000000000     
  0.000000000000000E+000  0.000000000000000E+000  -290000.000000000     
  0.000000000000000E+000  0.000000000000000E+000  -290000.000000000     
  0.000000000000000E+000  0.000000000000000E+000  -290000.000000000     
  0.000000000000000E+000  0.000000000000000E+000  -290000.000000000     
  0.000000000000000E+000  0.000000000000000E+000  -290000.000000000     
  0.000000000000000E+000  0.000000000000000E+000  -290000.000000000     
  0.000000000000000E+000  0.000000000000000E+000  -290000.000000000     
  0.000000000000000E+000  0.000000000000000E+000  -290000.000000000     
  0.000000000000000E+000  0.000000000000000E+000  -290000.000000000     
  0.000000000000000E+000  0.000000000000000E+000  -290000.000000000     
  0.000000000000000E+000  0.000000000000000E+000  -290000.000000000     
  0.000000000000000E+000  0.000000000000000E+000  -290000.000000000     
  0.000000000000000E+000  0.000000000000000E+000  -290000.000000000     
  0.000000000000000E+000  0.000000000000000E+000  -290000.000000000     
  0.000000000000000E+000  0.000000000000000E+000  -580000.000000000     
  0.000000000000000E+000  0.000000000000000E+000  -580000.000000000     
  0.000000000000000E+000  0.000000000000000E+000  -580000.000000000     
  0.000000000000000E+000  0.000000000000000E+000  -290000.000000000     
  0.000000000000000E+000  0.000000000000000E+000  -290000.000000000     
  0.000000000000000E+000  0.000000000000000E+000  -290000.000000000     
  0.000000000000000E+000  0.000000000000000E+000  -290000.000000000     
  0.000000000000000E+000  0.000000000000000E+000  -290000.000000000     
  0.000000000000000E+000  0.000000000000000E+000  -290000.000000000     
  0.000000000000000E+000  0.000000000000000E+000  -290000.000000000     
  0.000000000000000E+000  0.000000000000000E+000  -290000.000000000     
  0.000000000000000E+000  0.000000000000000E+000  -290000.000000000     
  0.000000000000000E+000  0.000000000000000E+000  -290000.000000000     
  0.000000000000000E+000  0.000000000000000E+000  -290000.000000000     
  0.000000000000000E+000  0.000000000000000E+000  -290000.000000000     
  0.000000000000000E+000  0.000000000000000E+000  -290000.000000000     
  0.000000000000000E+000  0.000000000000000E+000  -290000.000000000     
  0.000000000000000E+000  0.000000000000000E+000  -290000.000000000     
  0.000000000000000E+000  0.000000000000000E+000  -290000.000000000     
  0.000000000000000E+000  0.000000000000000E+000  -290000.000000000     
  0.000000000000000E+000  0.000000000000000E+000  -290000.000000000     
  0.000000000000000E+000  0.000000000000000E+000  -580000.000000000     
  0.000000000000000E+000  0.000000000000000E+000  -580000.000000000     
  0.000000000000000E+000  0.000000000000000E+000  -580000.000000000     
  0.000000000000000E+000  0.000000000000000E+000  -290000.000000000     
  0.000000000000000E+000  0.000000000000000E+000  -290000.000000000     
  0.000000000000000E+000  0.000000000000000E+000  -290000.000000000     
  0.000000000000000E+000  0.000000000000000E+000  -290000.000000000     
  0.000000000000000E+000  0.000000000000000E+000  -290000.000000000     
  0.000000000000000E+000  0.000000000000000E+000  -290000.000000000     
  0.000000000000000E+000  0.000000000000000E+000  -290000.000000000     
  0.000000000000000E+000  0.000000000000000E+000  -290000.000000000     
  0.000000000000000E+000  0.000000000000000E+000  -290000.000000000     
  0.000000000000000E+000  0.000000000000000E+000  -290000.000000000     
  0.000000000000000E+000  0.000000000000000E+000  -290000.000000000     
  0.000000000000000E+000  0.000000000000000E+000  -290000.000000000     
  0.000000000000000E+000  0.000000000000000E+000  -290000.000000000     
  0.000000000000000E+000  0.000000000000000E+000  -290000.000000000     
  0.000000000000000E+000  0.000000000000000E+000  -290000.000000000     
  0.000000000000000E+000  0.000000000000000E+000  -290000.000000000     
  0.000000000000000E+000  0.000000000000000E+000  -290000.000000000     
  0.000000000000000E+000  0.000000000000000E+000  -290000.000000000     
  0.000000000000000E+000  0.000000000000000E+000  -580000.000000000     
  0.000000000000000E+000  0.000000000000000E+000  -580000.000000000     
  0.000000000000000E+000  0.000000000000000E+000  -580000.000000000     
  0.000000000000000E+000  0.000000000000000E+000  -290000.000000000     
  0.000000000000000E+000  0.000000000000000E+000  -290000.000000000     
  0.000000000000000E+000  0.000000000000000E+000  -290000.000000000     
  0.000000000000000E+000  0.000000000000000E+000  -290000.000000000     
  0.000000000000000E+000  0.000000000000000E+000  -290000.000000000     
  0.000000000000000E+000  0.000000000000000E+000  -290000.000000000     
  0.000000000000000E+000  0.000000000000000E+000  -290000.000000000     
  0.000000000000000E+000  0.000000000000000E+000  -290000.000000000     
  0.000000000000000E+000  0.000000000000000E+000  -290000.000000000     
  0.000000000000000E+000  0.000000000000000E+000  -290000.000000000     
  0.000000000000000E+000  0.000000000000000E+000  -290000.000000000     
  0.000000000000000E+000  0.000000000000000E+000  -290000.000000000     
  0.000000000000000E+000  0.000000000000000E+000  -290000.000000000     
  0.000000000000000E+000  0.000000000000000E+000  -290000.000000000     
  0.000000000000000E+000  0.000000000000000E+000  -290000.000000000     
  0.000000000000000E+000  0.000000000000000E+000  -290000.000000000     
  0.000000000000000E+000  0.000000000000000E+000  -290000.000000000     
  0.000000000000000E+000  0.000000000000000E+000  -290000.000000000     
  0.000000000000000E+000  0.000000000000000E+000  -580000.000000000     
  0.000000000000000E+000  0.000000000000000E+000  -580000.000000000     
  0.000000000000000E+000  0.000000000000000E+000  -580000.000000000     
  0.000000000000000E+000  0.000000000000000E+000  -290000.000000000     
  0.000000000000000E+000  0.000000000000000E+000  -290000.000000000     
  0.000000000000000E+000  0.000000000000000E+000  -290000.000000000     
  0.000000000000000E+000  0.000000000000000E+000  -290000.000000000     
  0.000000000000000E+000  0.000000000000000E+000  -290000.000000000     
  0.000000000000000E+000  0.000000000000000E+000  -290000.000000000     
  0.000000000000000E+000  0.000000000000000E+000  -290000.000000000     
  0.000000000000000E+000  0.000000000000000E+000  -290000.000000000     
  0.000000000000000E+000  0.000000000000000E+000  -290000.000000000     
  0.000000000000000E+000  0.000000000000000E+000  -290000.000000000     
  0.000000000000000E+000  0.000000000000000E+000  -290000.000000000     
  0.000000000000000E+000  0.000000000000000E+000  -290000.000000000     
  0.000000000000000E+000  0.000000000000000E+000  -290000.000000000     
  0.000000000000000E+000  0.000000000000000E+000  -290000.000000000     
  0.000000000000000E+000  0.000000000000000E+000  -290000.000000000     
  0.000000000000000E+000  0.000000000000000E+000  -290000.000000000     
  0.000000000000000E+000  0.000000000000000E+000  -290000.000000000     
  0.000000000000000E+000  0.000000000000000E+000  -290000.000000000     
  0.000000000000000E+000  0.000000000000000E+000  -580000.000000000     
  0.000000000000000E+000  0.000000000000000E+000  -580000.000000000     
  0.000000000000000E+000  0.000000000000000E+000  -580000.000000000     
  0.000000000000000E+000  0.000000000000000E+000  -290000.000000000     
  0.000000000000000E+000  0.000000000000000E+000  -290000.000000000     
  0.000000000000000E+000  0.000000000000000E+000  -290000.000000000     
  0.000000000000000E+000  0.000000000000000E+000  -290000.000000000     
  0.000000000000000E+000  0.000000000000000E+000  -290000.000000000     
  0.000000000000000E+000  0.000000000000000E+000  -290000.000000000     
  0.000000000000000E+000  0.000000000000000E+000  -290000.000000000     
  0.000000000000000E+000  0.000000000000000E+000  -290000.000000000     
  0.000000000000000E+000  0.000000000000000E+000  -290000.000000000     
  0.000000000000000E+000  0.000000000000000E+000  -290000.000000000     
  0.000000000000000E+000  0.000000000000000E+000  -290000.000000000     
  0.000000000000000E+000  0.000000000000000E+000  -290000.000000000     
  0.000000000000000E+000  0.000000000000000E+000  -290000.000000000     
  0.000000000000000E+000  0.000000000000000E+000  -290000.000000000     
  0.000000000000000E+000  0.000000000000000E+000  -290000.000000000     
  0.000000000000000E+000  0.000000000000000E+000  -290000.000000000     
  0.000000000000000E+000  0.000000000000000E+000  -290000.000000000     
  0.000000000000000E+000  0.000000000000000E+000  -290000.000000000     
  0.000000000000000E+000  0.000000000000000E+000  -1160000.00000000     
  0.000000000000000E+000  0.000000000000000E+000  -1160000.00000000     
  0.000000000000000E+000  0.000000000000000E+000  -1160000.00000000     
  0.000000000000000E+000  0.000000000000000E+000  -290000.000000000     
  0.000000000000000E+000  0.000000000000000E+000  -290000.000000000     
  0.000000000000000E+000  0.000000000000000E+000  -290000.000000000     
  0.000000000000000E+000  0.000000000000000E+000  -290000.000000000     
  0.000000000000000E+000  0.000000000000000E+000  -290000.000000000     
  0.000000000000000E+000  0.000000000000000E+000  -290000.000000000     
  0.000000000000000E+000  0.000000000000000E+000  -290000.000000000     
  0.000000000000000E+000  0.000000000000000E+000  -290000.000000000     
  0.000000000000000E+000  0.000000000000000E+000  -290000.000000000     
  0.000000000000000E+000  0.000000000000000E+000  -290000.000000000     
  0.000000000000000E+000  0.000000000000000E+000  -290000.000000000     
  0.000000000000000E+000  0.000000000000000E+000  -290000.000000000     
  0.000000000000000E+000  0.000000000000000E+000  -290000.000000000     
  0.000000000000000E+000  0.000000000000000E+000  -290000.000000000     
  0.000000000000000E+000  0.000000000000000E+000  -290000.000000000     
  0.000000000000000E+000  0.000000000000000E+000  -290000.000000000     
  0.000000000000000E+000  0.000000000000000E+000  -290000.000000000     
  0.000000000000000E+000  0.000000000000000E+000  -290000.000000000     
  0.000000000000000E+000  0.000000000000000E+000  -1160000.00000000     
  0.000000000000000E+000  0.000000000000000E+000  -1160000.00000000     
  0.000000000000000E+000  0.000000000000000E+000  -1160000.00000000     
  0.000000000000000E+000  0.000000000000000E+000  -290000.000000000     
  0.000000000000000E+000  0.000000000000000E+000  -290000.000000000     
  0.000000000000000E+000  0.000000000000000E+000  -290000.000000000     
  0.000000000000000E+000  0.000000000000000E+000  -290000.000000000     
  0.000000000000000E+000  0.000000000000000E+000  -290000.000000000     
  0.000000000000000E+000  0.000000000000000E+000  -290000.000000000     
  0.000000000000000E+000  0.000000000000000E+000  -290000.000000000     
  0.000000000000000E+000  0.000000000000000E+000  -290000.000000000     
  0.000000000000000E+000  0.000000000000000E+000  -290000.000000000     
  0.000000000000000E+000  0.000000000000000E+000  -580000.000000000     
  0.000000000000000E+000  0.000000000000000E+000  -580000.000000000     
  0.000000000000000E+000  0.000000000000000E+000  -580000.000000000     
  0.000000000000000E+000  0.000000000000000E+000  -580000.000000000     
  0.000000000000000E+000  0.000000000000000E+000  -580000.000000000     
  0.000000000000000E+000  0.000000000000000E+000  -580000.000000000     
  0.000000000000000E+000  0.000000000000000E+000  -580000.000000000     
  0.000000000000000E+000  0.000000000000000E+000  -580000.000000000     
  0.000000000000000E+000  0.000000000000000E+000  -580000.000000000     
  0.000000000000000E+000  0.000000000000000E+000  -580000.000000000     
  0.000000000000000E+000  0.000000000000000E+000  -580000.000000000     
  0.000000000000000E+000  0.000000000000000E+000  -580000.000000000     
  0.000000000000000E+000  0.000000000000000E+000  -580000.000000000     
  0.000000000000000E+000  0.000000000000000E+000  -580000.000000000     
  0.000000000000000E+000  0.000000000000000E+000  -580000.000000000     
  0.000000000000000E+000  0.000000000000000E+000  -580000.000000000     
  0.000000000000000E+000  0.000000000000000E+000  -580000.000000000     
  0.000000000000000E+000  0.000000000000000E+000  -580000.000000000     
  0.000000000000000E+000  0.000000000000000E+000  -580000.000000000     
  0.000000000000000E+000  0.000000000000000E+000  -580000.000000000     
  0.000000000000000E+000  0.000000000000000E+000  -580000.000000000     
  0.000000000000000E+000  0.000000000000000E+000  -580000.000000000     
  0.000000000000000E+000  0.000000000000000E+000  -580000.000000000     
  0.000000000000000E+000  0.000000000000000E+000  -580000.000000000     
  0.000000000000000E+000  0.000000000000000E+000  -580000.000000000     
  0.000000000000000E+000  0.000000000000000E+000  -580000.000000000     
  0.000000000000000E+000  0.000000000000000E+000  -580000.000000000     
  0.000000000000000E+000  0.000000000000000E+000  -580000.000000000     
  0.000000000000000E+000  0.000000000000000E+000  -580000.000000000     
  0.000000000000000E+000  0.000000000000000E+000  -580000.000000000     
  0.000000000000000E+000  0.000000000000000E+000  -580000.000000000     
  0.000000000000000E+000  0.000000000000000E+000  -580000.000000000     
  0.000000000000000E+000  0.000000000000000E+000  -580000.000000000     
  0.000000000000000E+000  0.000000000000000E+000  -580000.000000000     
  0.000000000000000E+000  0.000000000000000E+000  -580000.000000000     
  0.000000000000000E+000  0.000000000000000E+000  -580000.000000000     
  0.000000000000000E+000  0.000000000000000E+000  -580000.000000000     