# vtk DataFile Version 3.0
 Bridge                                                                         
  
ASCII
DATASET UNSTRUCTURED_GRID
 POINTS        4085 double
   200.000000000000       -10.0000000000000       0.000000000000000E+000
   200.000000000000        10.0000000000000       0.000000000000000E+000
   150.000000000000        10.0000000000000       0.000000000000000E+000
   150.000000000000       -10.0000000000000       0.000000000000000E+000
   100.000000000000        10.0000000000000       0.000000000000000E+000
   100.000000000000       -10.0000000000000       0.000000000000000E+000
   50.0000000000000        10.0000000000000       0.000000000000000E+000
   50.0000000000000       -10.0000000000000       0.000000000000000E+000
  0.000000000000000E+000   10.0000000000000       0.000000000000000E+000
  0.000000000000000E+000  -10.0000000000000       0.000000000000000E+000
  -50.0000000000000        10.0000000000000       0.000000000000000E+000
  -50.0000000000000       -10.0000000000000       0.000000000000000E+000
  -100.000000000000        10.0000000000000       0.000000000000000E+000
  -100.000000000000       -10.0000000000000       0.000000000000000E+000
  -150.000000000000        10.0000000000000       0.000000000000000E+000
  -150.000000000000       -10.0000000000000       0.000000000000000E+000
  -200.000000000000        10.0000000000000       0.000000000000000E+000
  -200.000000000000       -10.0000000000000       0.000000000000000E+000
  -250.000000000000        10.0000000000000       0.000000000000000E+000
  -250.000000000000       -10.0000000000000       0.000000000000000E+000
   250.000000000000       -10.0000000000000       0.000000000000000E+000
   250.000000000000        10.0000000000000       0.000000000000000E+000
   200.000000000000       -5.00000000000000       0.000000000000000E+000
   200.000000000000       0.000000000000000E+000  0.000000000000000E+000
   200.000000000000        5.00000000000000       0.000000000000000E+000
   195.000000000000        10.0000000000000       0.000000000000000E+000
   190.000000000000        10.0000000000000       0.000000000000000E+000
   185.000000000000        10.0000000000000       0.000000000000000E+000
   180.000000000000        10.0000000000000       0.000000000000000E+000
   175.000000000000        10.0000000000000       0.000000000000000E+000
   170.000000000000        10.0000000000000       0.000000000000000E+000
   165.000000000000        10.0000000000000       0.000000000000000E+000
   160.000000000000        10.0000000000000       0.000000000000000E+000
   155.000000000000        10.0000000000000       0.000000000000000E+000
   150.000000000000        5.00000000000000       0.000000000000000E+000
   150.000000000000       0.000000000000000E+000  0.000000000000000E+000
   150.000000000000       -5.00000000000000       0.000000000000000E+000
   155.000000000000       -10.0000000000000       0.000000000000000E+000
   160.000000000000       -10.0000000000000       0.000000000000000E+000
   165.000000000000       -10.0000000000000       0.000000000000000E+000
   170.000000000000       -10.0000000000000       0.000000000000000E+000
   175.000000000000       -10.0000000000000       0.000000000000000E+000
   180.000000000000       -10.0000000000000       0.000000000000000E+000
   185.000000000000       -10.0000000000000       0.000000000000000E+000
   190.000000000000       -10.0000000000000       0.000000000000000E+000
   195.000000000000       -10.0000000000000       0.000000000000000E+000
   145.000000000000        10.0000000000000       0.000000000000000E+000
   140.000000000000        10.0000000000000       0.000000000000000E+000
   135.000000000000        10.0000000000000       0.000000000000000E+000
   130.000000000000        10.0000000000000       0.000000000000000E+000
   125.000000000000        10.0000000000000       0.000000000000000E+000
   120.000000000000        10.0000000000000       0.000000000000000E+000
   115.000000000000        10.0000000000000       0.000000000000000E+000
   110.000000000000        10.0000000000000       0.000000000000000E+000
   105.000000000000        10.0000000000000       0.000000000000000E+000
   100.000000000000        5.00000000000000       0.000000000000000E+000
   100.000000000000       0.000000000000000E+000  0.000000000000000E+000
   100.000000000000       -5.00000000000000       0.000000000000000E+000
   105.000000000000       -10.0000000000000       0.000000000000000E+000
   110.000000000000       -10.0000000000000       0.000000000000000E+000
   115.000000000000       -10.0000000000000       0.000000000000000E+000
   120.000000000000       -10.0000000000000       0.000000000000000E+000
   125.000000000000       -10.0000000000000       0.000000000000000E+000
   130.000000000000       -10.0000000000000       0.000000000000000E+000
   135.000000000000       -10.0000000000000       0.000000000000000E+000
   140.000000000000       -10.0000000000000       0.000000000000000E+000
   145.000000000000       -10.0000000000000       0.000000000000000E+000
   95.0000000000000        10.0000000000000       0.000000000000000E+000
   90.0000000000000        10.0000000000000       0.000000000000000E+000
   85.0000000000000        10.0000000000000       0.000000000000000E+000
   80.0000000000000        10.0000000000000       0.000000000000000E+000
   75.0000000000000        10.0000000000000       0.000000000000000E+000
   70.0000000000000        10.0000000000000       0.000000000000000E+000
   65.0000000000000        10.0000000000000       0.000000000000000E+000
   60.0000000000000        10.0000000000000       0.000000000000000E+000
   55.0000000000000        10.0000000000000       0.000000000000000E+000
   50.0000000000000        5.00000000000000       0.000000000000000E+000
   50.0000000000000       0.000000000000000E+000  0.000000000000000E+000
   50.0000000000000       -5.00000000000000       0.000000000000000E+000
   55.0000000000000       -10.0000000000000       0.000000000000000E+000
   60.0000000000000       -10.0000000000000       0.000000000000000E+000
   65.0000000000000       -10.0000000000000       0.000000000000000E+000
   70.0000000000000       -10.0000000000000       0.000000000000000E+000
   75.0000000000000       -10.0000000000000       0.000000000000000E+000
   80.0000000000000       -10.0000000000000       0.000000000000000E+000
   85.0000000000000       -10.0000000000000       0.000000000000000E+000
   90.0000000000000       -10.0000000000000       0.000000000000000E+000
   95.0000000000000       -10.0000000000000       0.000000000000000E+000
   45.0000000000000        10.0000000000000       0.000000000000000E+000
   40.0000000000000        10.0000000000000       0.000000000000000E+000
   35.0000000000000        10.0000000000000       0.000000000000000E+000
   30.0000000000000        10.0000000000000       0.000000000000000E+000
   25.0000000000000        10.0000000000000       0.000000000000000E+000
   20.0000000000000        10.0000000000000       0.000000000000000E+000
   15.0000000000000        10.0000000000000       0.000000000000000E+000
   10.0000000000000        10.0000000000000       0.000000000000000E+000
   5.00000000000000        10.0000000000000       0.000000000000000E+000
  0.000000000000000E+000   5.00000000000000       0.000000000000000E+000
  0.000000000000000E+000  0.000000000000000E+000  0.000000000000000E+000
  0.000000000000000E+000  -5.00000000000000       0.000000000000000E+000
   5.00000000000000       -10.0000000000000       0.000000000000000E+000
   10.0000000000000       -10.0000000000000       0.000000000000000E+000
   15.0000000000000       -10.0000000000000       0.000000000000000E+000
   20.0000000000000       -10.0000000000000       0.000000000000000E+000
   25.0000000000000       -10.0000000000000       0.000000000000000E+000
   30.0000000000000       -10.0000000000000       0.000000000000000E+000
   35.0000000000000       -10.0000000000000       0.000000000000000E+000
   40.0000000000000       -10.0000000000000       0.000000000000000E+000
   45.0000000000000       -10.0000000000000       0.000000000000000E+000
  -5.00000000000000        10.0000000000000       0.000000000000000E+000
  -10.0000000000000        10.0000000000000       0.000000000000000E+000
  -15.0000000000000        10.0000000000000       0.000000000000000E+000
  -20.0000000000000        10.0000000000000       0.000000000000000E+000
  -25.0000000000000        10.0000000000000       0.000000000000000E+000
  -30.0000000000000        10.0000000000000       0.000000000000000E+000
  -35.0000000000000        10.0000000000000       0.000000000000000E+000
  -40.0000000000000        10.0000000000000       0.000000000000000E+000
  -45.0000000000000        10.0000000000000       0.000000000000000E+000
  -50.0000000000000        5.00000000000000       0.000000000000000E+000
  -50.0000000000000       0.000000000000000E+000  0.000000000000000E+000
  -50.0000000000000       -5.00000000000000       0.000000000000000E+000
  -45.0000000000000       -10.0000000000000       0.000000000000000E+000
  -40.0000000000000       -10.0000000000000       0.000000000000000E+000
  -35.0000000000000       -10.0000000000000       0.000000000000000E+000
  -30.0000000000000       -10.0000000000000       0.000000000000000E+000
  -25.0000000000000       -10.0000000000000       0.000000000000000E+000
  -20.0000000000000       -10.0000000000000       0.000000000000000E+000
  -15.0000000000000       -10.0000000000000       0.000000000000000E+000
  -10.0000000000000       -10.0000000000000       0.000000000000000E+000
  -5.00000000000000       -10.0000000000000       0.000000000000000E+000
  -55.0000000000000        10.0000000000000       0.000000000000000E+000
  -60.0000000000000        10.0000000000000       0.000000000000000E+000
  -65.0000000000000        10.0000000000000       0.000000000000000E+000
  -70.0000000000000        10.0000000000000       0.000000000000000E+000
[...]
 CELL_DATA        2884
 POINT_DATA        4085
 FIELD Result            2
 Displacement_Load_Case01            3        4085 double
<<<<<<< HEAD
 -2.852996916907210E-003 -2.842121457841184E-003 -4.856664523893107E-002
 -5.709416828646093E-003 -2.966147702117793E-003 -5.521139171636797E-002
 -3.681709976623568E-003 -8.542081499807678E-003 -8.081860521365758E-002
 -1.812709537193603E-003 -8.588399527185885E-003 -4.984305143369940E-002
 -9.096219613726824E-004 -8.286503803678522E-003 -0.113708786627517     
 -2.524348553000569E-003 -8.405730105864991E-003 -7.965749010117365E-002
  5.940850699813529E-004 -3.329430361595379E-003 -7.222139921294715E-002
 -1.415925253005796E-003 -3.397974703702873E-003 -6.713589777126576E-002
 -6.092187683883919E-004 -4.090854768919193E-004 -7.011828361331688E-003
 -8.154691553463728E-004  3.385801814811129E-004 -7.015947393232615E-003
 -6.612402700199905E-004 -1.081989260101417E-003 -0.163981665930958     
  7.696056252496238E-004 -1.213206636880661E-003 -0.170415034741175     
  7.166646673131825E-004 -2.883813754310490E-003 -0.265881302705871     
  1.146829401189542E-003 -3.260055582172097E-003 -0.268238996231663     
  6.686722655152230E-003 -2.428779887962502E-003 -0.250301648153695     
  6.194724164392873E-003 -3.011889604011238E-003 -0.250558161441261     
  1.419789158658566E-002 -1.317724085100799E-003 -0.142784477135736     
  1.365930777121897E-002 -1.042753864436690E-003 -0.142709158312874     
  1.964795457670160E-003 -3.597803015051848E-004 -2.380080231995167E-003
  1.880071960348152E-003  6.893180815752229E-005 -2.407364121643318E-003
 -3.069660966370338E-004  3.858615381688245E-005 -7.350178729289890E-004
 -3.472654015125373E-004 -2.382841346197672E-005 -7.570691762789317E-004
 -2.560324047893752E-003 -2.859520843669688E-003 -5.217518255066267E-002
 -3.081129812003775E-003 -2.886001808116934E-003 -5.574610711364827E-002
 -3.781890125436474E-003 -2.921547166560978E-003 -5.646554945245333E-002
 -4.860415577178648E-003 -3.701765749165242E-003 -5.981819535715970E-002
 -4.523947640075156E-003 -4.219269093883381E-003 -6.779964809977597E-002
 -4.351624120585246E-003 -4.748491716602880E-003 -7.542781140023515E-002
 -4.220020746873937E-003 -5.307688718244611E-003 -8.142116815935872E-002
 -4.097115600598449E-003 -5.875568444315247E-003 -8.517962941002048E-002
 -3.979911124804172E-003 -6.442937737359994E-003 -8.670072486211788E-002
 -3.864796321402525E-003 -7.005106177074764E-003 -8.636801232347682E-002
 -3.753165708344619E-003 -7.548861663166961E-003 -8.481990459977959E-002
 -3.663281172478347E-003 -8.053035943761919E-003 -8.269824047746739E-002
 -2.954983072156845E-003 -8.597176849442969E-003 -7.584423507132729E-002
 -2.501955889362288E-003 -8.621851558713181E-003 -6.605322529739915E-002
 -2.090454637713647E-003 -8.615536946374487E-003 -5.579792264127452E-002
 -1.613236765922077E-003 -8.112803424085293E-003 -3.755404519120992E-002
 -1.596701326684083E-003 -7.661312695227208E-003 -2.305573347724824E-002
 -1.565435975256742E-003 -7.182283490303399E-003 -1.663894647741022E-002
 -1.651725522452191E-003 -6.592260343004640E-003 -1.902932609059393E-002
 -1.750359957733583E-003 -6.015703200283080E-003 -2.590126177608057E-002
 -1.837140497471109E-003 -5.430999871057916E-003 -3.379667997616505E-002
 -1.913743125749867E-003 -4.814856959122556E-003 -4.068651866401785E-002
 -2.012467408205166E-003 -4.140473604559155E-003 -4.539264880705565E-002
 -2.237817574852026E-003 -3.420921657854709E-003 -4.776693880873929E-002
 -3.231620555937277E-003 -8.947435011335721E-003 -8.884522060090294E-002
 -2.902416138860367E-003 -9.207347124419930E-003 -0.101929647252550     
 -2.615363930704283E-003 -9.377161422884195E-003 -0.114276348013620     
 -2.343501123375344E-003 -9.463140813604914E-003 -0.123879484329186     
 -2.080307940993939E-003 -9.464024179962659E-003 -0.129692711864021     
 -1.825029869378004E-003 -9.381018364203891E-003 -0.131497188056906     
 -1.578294109782085E-003 -9.216869636934528E-003 -0.129664505808942     
 -1.341780949673964E-003 -8.975401466729630E-003 -0.125009197563774     
 -1.118074753805706E-003 -8.662322270475269E-003 -0.118504885518389     
 -1.298483025471816E-003 -8.337883455286273E-003 -0.110484472555167     
 -1.666544339080865E-003 -8.374868569265507E-003 -0.101775372723536     
 -2.042168208928987E-003 -8.397489811645887E-003 -8.929682032694047E-002
 -2.444409094260420E-003 -8.788145121575689E-003 -8.226736302370952E-002
 -2.387151907388284E-003 -9.092796021695153E-003 -8.879959524044433E-002
 -2.329258558552411E-003 -9.328354945271036E-003 -9.504958729192772E-002
 -2.263474577614148E-003 -9.490468273933761E-003 -9.853630161817745E-002
 -2.188104081076163E-003 -9.572888185210909E-003 -9.826742739950546E-002
 -2.102598205778026E-003 -9.569348737093447E-003 -9.374997602613436E-002
 -2.007806715086327E-003 -9.472020641078964E-003 -8.487973447247305E-002
 -1.910139513860093E-003 -9.272227243076407E-003 -7.214748042425223E-002
 -1.829050244471312E-003 -8.968437617310410E-003 -5.784926353325321E-002
 -7.292030837843457E-004 -7.863687302876522E-003 -0.117548286473863     
 -5.638641124445374E-004 -7.408115089059917E-003 -0.122309694899794     
 -4.112729659776684E-004 -6.928851142886217E-003 -0.125093852465240     
 -2.691393263555938E-004 -6.431517548882635E-003 -0.125126764091132     
 -1.364994018687571E-004 -5.920416914400282E-003 -0.121759865668351     
 -1.361479153731794E-005 -5.400696475539371E-003 -0.114811040172729     
  1.003819674212104E-004 -4.880108541926843E-003 -0.104656535910777     
  2.130754631558028E-004 -4.368675832725055E-003 -9.223044106933305E-002
  3.522636046170149E-004 -3.867211741305637E-003 -7.946133030130251E-002
 -1.863473052906381E-004 -3.339022201690621E-003 -7.421495772997107E-002
 -6.965009496872876E-004 -3.353652794396117E-003 -7.433829132646930E-002
 -1.163834289493478E-003 -3.373302569880972E-003 -7.101330549766496E-002
 -1.686201765730160E-003 -3.898564078634426E-003 -7.267937501239143E-002
 -1.844332365740938E-003 -4.448176762442586E-003 -8.250968222905668E-002
 -1.959675195886457E-003 -4.994225747610574E-003 -9.137863816232945E-002
 -2.058522254861779E-003 -5.528307752530067E-003 -9.744807426856833E-002
 -2.148457583303994E-003 -6.051222657945086E-003 -0.100066234698574     
 -2.230351154097651E-003 -6.561836452582940E-003 -9.913613910121173E-002
 -2.303892004624625E-003 -7.056422568487216E-003 -9.500804792350100E-002
 -2.370049166114010E-003 -7.529352403718774E-003 -8.856114302257211E-002
 -2.435773153950697E-003 -7.976342525986120E-003 -8.213059788050003E-002
  4.004329001823874E-004 -2.807892687308295E-003 -7.177670897297540E-002
  3.093598108191129E-004 -2.356060824552314E-003 -7.044731364527450E-002
  2.448354242400893E-004 -1.927405970093398E-003 -6.744424606358715E-002
  1.791481276275385E-004 -1.522515712884775E-003 -6.202825787058244E-002
  1.045283161755285E-004 -1.150755979027387E-003 -5.393336199781403E-002
  1.866264519857245E-005 -8.188943983511345E-004 -4.348190331867277E-002
 -8.315001610732613E-005 -5.325064397549960E-004 -3.168021671499063E-002
 -2.128336051626565E-004 -3.078070158749010E-004 -2.007073754740457E-002
 -3.874261579867131E-004 -1.713758068873268E-004 -1.082219889626589E-002
 -4.438071555694719E-004 -1.509094817280298E-004 -1.104503432000459E-002
 -5.099772483170058E-004 -1.476292515260459E-005 -1.342695829804635E-002
 -6.064891472064752E-004  1.107448792787321E-004 -1.105069310055684E-002
 -8.875291211915938E-004 -1.227016129878732E-004 -1.059135122205593E-002
 -9.557454849637328E-004 -3.304244082432709E-004 -1.939591082575886E-002
 -1.045480613841361E-003 -5.618317519872834E-004 -3.047686845408738E-002
 -1.145408342013425E-003 -8.355687837259594E-004 -4.168250513301120E-002
 -1.243455135130150E-003 -1.160342810288179E-003 -5.149329124253230E-002
 -1.334848965969847E-003 -1.532703499439494E-003 -5.892834945235412E-002
 -1.417239614587706E-003 -1.950474090803401E-003 -6.367562806262556E-002
 -1.482864341931133E-003 -2.413724106753764E-003 -6.599464095420830E-002
 -1.505522262986095E-003 -2.913750576205999E-003 -6.677365092908608E-002
 -4.434218596123975E-004 -3.919249529641482E-005 -1.597084003546538E-002
 -4.279991538253498E-004  5.591367398931484E-005 -3.467770663656763E-002
 -4.358369082037293E-004  7.467657662767843E-005 -5.669833678979661E-002
 -4.397967371568473E-004  3.294846446889012E-005 -7.920155626999441E-002
 -4.410965446352593E-004 -5.076537688102167E-005 -0.100432822600777     
 -4.433213832924602E-004 -1.730457485397846E-004 -0.119233866494339     
 -4.490005777354326E-004 -3.332886109030086E-004 -0.135103005997243     
 -4.634204992343948E-004 -5.291981108960553E-004 -0.148061483659765     
 -5.096470068700928E-004 -7.640203553484462E-004 -0.158403959378263     
 -7.088475633851194E-005 -1.111070258195552E-003 -0.168106910080303     
  2.263011173807780E-004 -1.142644074536603E-003 -0.171815085205614     
  4.976412152370530E-004 -1.176691592831936E-003 -0.172107413569820     
  6.387814009669622E-004 -9.177356365796033E-004 -0.165071234445752     
  4.838204836867994E-004 -6.539491223810742E-004 -0.154344919307239     
  3.187883947027030E-004 -4.375024330300261E-004 -0.140592514550236     
  1.534753511398420E-004 -2.702471156271021E-004 -0.123826531330777     
 -6.863091684595216E-006 -1.485272862108944E-004 -0.104078799153295     
 -1.595615803206745E-004 -6.738460672966522E-005 -8.189046194715066E-002
 -3.010630082508106E-004 -1.912741330901112E-005 -5.847738904783505E-002
 -4.299749651771640E-004  1.790413916146892E-005 -3.565104689053241E-002
 -5.674035198711190E-004  6.231598099502004E-005 -1.629558793622309E-002
 -3.234600383338316E-004 -1.407935292511593E-003 -0.174918460529981     
 -9.106404689744172E-005 -1.667278561767719E-003 -0.194812977682832     
  1.096912330996423E-004 -1.904159275221720E-003 -0.214890275297220     
  3.023047647555652E-004 -2.121586619110744E-003 -0.232503996579321     
  4.927060644536021E-004 -2.315942167635720E-003 -0.246621302299082     
  6.829305949626432E-004 -2.482760832812861E-003 -0.256798963535045     
  8.694887337411943E-004 -2.611416046345068E-003 -0.263029829383677     
  1.026243146735512E-003 -2.685052712389082E-003 -0.265761324990239     
  1.059831143098554E-003 -2.718346504985729E-003 -0.266104741562966     
  1.734558974188866E-003 -2.988212964479198E-003 -0.269272989274939     
  1.898329851047785E-003 -3.085711116024900E-003 -0.271740611409283     
  1.917156781816384E-003 -3.176328438197049E-003 -0.270746276946678     
  1.522533383442992E-003 -3.220767874500234E-003 -0.268840285353886     
  1.548101565481316E-003 -3.024661197910522E-003 -0.268979557004648     
  1.462429280880160E-003 -2.834149117232807E-003 -0.266758669810074     
  1.355610411615401E-003 -2.660271363871015E-003 -0.261115374227787     
  1.253779307160412E-003 -2.482542220646923E-003 -0.251559301786112     
  1.160420947920154E-003 -2.285981145344091E-003 -0.238051961977703     
  1.073355941573133E-003 -2.061732760199262E-003 -0.221015786438479     
  9.866824810560925E-004 -1.804784026573439E-003 -0.201448387353332     
  8.901747128065589E-004 -1.516707146106623E-003 -0.181704502424079     
  1.777752065615104E-003 -3.026914029805606E-003 -0.270742387407695     
  2.462194744748589E-003 -2.992134495809842E-003 -0.278984262459031     
  3.023527291647622E-003 -2.952145713824661E-003 -0.285827519549962     
  3.555015909131362E-003 -2.921575174775652E-003 -0.289581372128863     
  4.082564527002225E-003 -2.883707462018453E-003 -0.289584231611651     
  4.609361547023399E-003 -2.828698250879678E-003 -0.285684084955526     
  5.133877347947348E-003 -2.754202365829436E-003 -0.278176401935338     
  5.654907926031002E-003 -2.661404638910897E-003 -0.267876796687825     
  6.172258951268336E-003 -2.552399426243216E-003 -0.256697868576718     
  6.557914315527603E-003 -2.579992484411636E-003 -0.253391926553539     
  6.436944725224645E-003 -2.727553365120634E-003 -0.255259681292482     
  6.316625037750768E-003 -2.871510539206081E-003 -0.253553858720397     
  5.731623829022988E-003 -3.135223148418013E-003 -0.257061658370094     
  5.274250748043394E-003 -3.245174959737661E-003 -0.268435260455541     
  4.821733213682114E-003 -3.339207194025004E-003 -0.278974802657956     
  4.374254392617919E-003 -3.415150417631547E-003 -0.286759527399491     
  3.933020854241064E-003 -3.469928395765653E-003 -0.290956307488760     
  3.499551833584450E-003 -3.496933819096179E-003 -0.291252646232363     
  3.070620857938146E-003 -3.482050023352759E-003 -0.287791105120308     
  2.620334277132086E-003 -3.405024842221333E-003 -0.281223851374656     
  2.058701011432186E-003 -3.276946288755611E-003 -0.273147304867761     
  7.192213463286044E-003 -2.293292722426753E-003 -0.249767348595775     
  7.694885512782880E-003 -2.148077929457018E-003 -0.248182451806491     
  8.193252862417105E-003 -1.994086561481089E-003 -0.244375589046363     
  8.684714663901796E-003 -1.833339353182295E-003 -0.237332062143309     
  9.163788563141300E-003 -1.672220165333629E-003 -0.226559871463291     
  9.624126847130175E-003 -1.531539512741768E-003 -0.212015782888427     
  1.007900631873904E-002 -1.462924089931745E-003 -0.194130746483164     
  1.063532587471691E-002 -1.544618159705938E-003 -0.173932574483515     
  1.167057039309329E-002 -1.725516300605313E-003 -0.153929305960988     
  1.037849075547984E-002 -1.246744440646478E-003 -0.145684886355678     
  9.940037423519043E-003 -1.177221169073300E-003 -0.147373494769369     
  1.009966719409006E-002 -1.109209338648122E-003 -0.145638338484341     
  1.109172066213129E-002 -9.294731599365606E-004 -0.153859297386416     
  1.003146746773662E-002 -1.420549898295552E-003 -0.173885163989965     
  9.459769080650198E-003 -1.821680788540134E-003 -0.194116934943613     
  8.997888211627083E-003 -2.077836883239956E-003 -0.212041247750208     
  8.538924232759393E-003 -2.263345529976725E-003 -0.226628193645234     
  8.069614875192831E-003 -2.425632049175866E-003 -0.237445092340114     
  7.596311694274192E-003 -2.581311291749697E-003 -0.244534024150956     
  7.124499271976588E-003 -2.732569947276220E-003 -0.248387063060804     
  6.656794228357545E-003 -2.877238531942818E-003 -0.250011811161205     
  1.119110686478945E-002 -9.154826090723648E-004 -0.137538401849661     
  9.676445470257354E-003 -1.111783488938104E-003 -0.127554048072222     
  8.640614740773035E-003 -1.219116666393316E-003 -0.115036797521512     
  7.706084156500359E-003 -1.186667344849448E-003 -9.983390293248845E-002
  6.766295021770795E-003 -1.093341473310510E-003 -8.194660949186373E-002
  5.809752633404132E-003 -9.914398936799501E-004 -6.195665422317324E-002
  4.848058171651664E-003 -8.999734219826062E-004 -4.130236942441760E-002
  3.896275489119375E-003 -8.104598299951662E-004 -2.229339024415405E-002
  2.958020934900642E-003 -6.877775828436549E-004 -8.054994577473180E-003
  1.892369302044599E-003 -2.285971695459145E-004 -2.487457862310667E-003
  1.867223646676240E-003 -1.392117711395597E-004 -2.506260842309511E-003
  1.850778016166446E-003 -5.243979620213775E-005 -2.497357809065217E-003
  2.788045226421038E-003  3.114161670185245E-004 -8.076071427929423E-003
  3.651230114212131E-003  3.170654062911493E-004 -2.230452618147098E-002
  4.536115641503996E-003  2.539934587593689E-004 -4.130100691944723E-002
  5.439117447126076E-003  1.615291026993058E-004 -6.194057537664927E-002
  6.345300265822616E-003  5.220211554272559E-005 -8.191490470072882E-002
  7.243060224168324E-003 -8.879419388117044E-005 -9.978679178452218E-002
  8.143877952568098E-003 -3.095926616675439E-004 -0.114975354213615     
  9.154315456802262E-003 -6.852096437797413E-004 -0.127480557147000     
  1.065315775951038E-002 -1.160940398948147E-003 -0.137459658140700     
 -2.151577532766454E-003 -2.293293228913647E-003 -5.097911965245491E-002
 -1.840056375647394E-003 -1.664109794015069E-003 -5.430624179104383E-002
 -1.655297167588091E-003 -1.140401736761720E-003 -5.528370711771172E-002
 -1.493023840965988E-003 -7.354178094309799E-004 -5.285200262983086E-002
 -1.321258918804819E-003 -4.233692946372611E-004 -4.681652253943724E-002
 -1.136697026797073E-003 -1.844077765239904E-004 -3.754892159716125E-002
 -9.434690683669232E-004 -9.236781929435230E-006 -2.610337226930731E-002
 -7.467834747789771E-004  1.013336281039478E-004 -1.429925384582267E-002
 -5.456011605264571E-004  1.364467200066938E-004 -4.743728355856223E-003
 -3.053712463552206E-004  2.423484756496326E-005 -7.573801994841212E-004
 -3.159817487713449E-004  1.324589706517979E-005 -7.673486935258437E-004
 -3.274169417590451E-004 -1.929163196710744E-007 -7.722475175964464E-004
 -7.628982203290406E-004 -1.838769593336498E-004 -4.870175716702317E-003
 -1.164501957399102E-003 -2.756031403739510E-004 -1.469631615343563E-002
 -1.582776292126014E-003 -3.990956511186153E-004 -2.690051200157657E-002
 -2.016734921686082E-003 -5.737615809837079E-004 -3.885651339148900E-002
 -2.460709477017995E-003 -8.098009318633132E-004 -4.873835957176206E-002
 -2.910528685199516E-003 -1.107127222518903E-003 -5.549345897426435E-002
 -3.369280880990183E-003 -1.455314027912471E-003 -5.877442485350538E-002
 -3.868988055604275E-003 -1.833691306072399E-003 -5.888529688278892E-002
 -4.532929410681538E-003 -2.260686750607795E-003 -5.689094617524521E-002
 -2.680199437107972E-003 -3.411054805646787E-003 -5.200267543701799E-002
 -3.158524860771417E-003 -3.551224902117003E-003 -5.596469629983292E-002
 -3.970881572874150E-003 -3.720114087696207E-003 -5.859071012082496E-002
 -2.627047769866988E-003 -4.132605048084839E-003 -5.140761555753191E-002
 -3.216846326595357E-003 -4.189494734167411E-003 -5.711269986768230E-002
 -3.894007801581734E-003 -4.241829628204896E-003 -6.252514347002838E-002
 -2.541420190983234E-003 -4.796863868455013E-003 -4.931149018844982E-002
 -3.155538071955307E-003 -4.791552535686533E-003 -5.795288223680387E-002
 -3.771773111418982E-003 -4.781414774636971E-003 -6.664126191279396E-002
 -2.442983737567464E-003 -5.404954909550850E-003 -4.561323450718250E-002
 -3.049692980422121E-003 -5.376427083236252E-003 -5.750328759879327E-002
 -3.645147236383179E-003 -5.344183994932115E-003 -6.944768305455154E-002
 -2.339332194191015E-003 -5.984939161666985E-003 -4.074349823230650E-002
 -2.934601741447571E-003 -5.949718088835866E-003 -5.558156822706565E-002
 -3.522657013743670E-003 -5.912459299312476E-003 -7.036546051132880E-002
 -2.230097588801199E-003 -6.556391935141742E-003 -3.595484330445495E-002
 -2.817848465571428E-003 -6.513640108183748E-003 -5.271105278207491E-002
 -3.406586784625745E-003 -6.475616054825267E-003 -6.962651343358843E-002
 -2.092065163869982E-003 -7.121944110944335E-003 -3.302126731017092E-002
 -2.702388867496865E-003 -7.057913520468593E-003 -5.021313289425126E-002
 -3.305247033419237E-003 -7.036491791090106E-003 -6.827400860956070E-002
 -1.844291675315506E-003 -7.655425279757033E-003 -3.454987694041498E-002
 -2.638262213453747E-003 -7.625370992268224E-003 -5.067630320382219E-002
 -3.207326593358939E-003 -7.585097312483114E-003 -6.768479776039769E-002
 -2.033860861674674E-003 -8.164261038192653E-003 -4.449352603340857E-002
 -2.542272822490723E-003 -8.166659585476429E-003 -5.599472905786049E-002
 -3.110356049175193E-003 -8.093418993831375E-003 -6.952177700268293E-002
 -2.136933153336898E-003 -8.989360863210911E-003 -6.899354519794811E-002
 -2.452646078131269E-003 -9.010128529473870E-003 -7.779858965302902E-002
 -2.835830536732991E-003 -9.013667488929180E-003 -8.445783172989994E-002
 -2.152206046617980E-003 -9.292433936038390E-003 -8.126304153274473E-002
 -2.396893689099614E-003 -9.297656260722025E-003 -8.933942968664442E-002
 -2.658725104899973E-003 -9.274141236123204E-003 -9.581675862957705E-002
 -2.159426929799148E-003 -9.488903801989430E-003 -9.248056239781612E-002
 -2.316544068723060E-003 -9.481000417807556E-003 -9.995040115463701E-002
 -2.473825352299613E-003 -9.444942237624010E-003 -0.107183630170512     