# vtk DataFile Version 3.0
 Bridge                                                                         
  
ASCII
DATASET UNSTRUCTURED_GRID
 POINTS        4085 double
   200.000000000000       -10.0000000000000       0.000000000000000E+000
   200.000000000000        10.0000000000000       0.000000000000000E+000
   150.000000000000        10.0000000000000       0.000000000000000E+000
   150.000000000000       -10.0000000000000       0.000000000000000E+000
   100.000000000000        10.0000000000000       0.000000000000000E+000
   100.000000000000       -10.0000000000000       0.000000000000000E+000
   50.0000000000000        10.0000000000000       0.000000000000000E+000
   50.0000000000000       -10.0000000000000       0.000000000000000E+000
  0.000000000000000E+000   10.0000000000000       0.000000000000000E+000
  0.000000000000000E+000  -10.0000000000000       0.000000000000000E+000
  -50.0000000000000        10.0000000000000       0.000000000000000E+000
  -50.0000000000000       -10.0000000000000       0.000000000000000E+000
  -100.000000000000        10.0000000000000       0.000000000000000E+000
  -100.000000000000       -10.0000000000000       0.000000000000000E+000
  -150.000000000000        10.0000000000000       0.000000000000000E+000
  -150.000000000000       -10.0000000000000       0.000000000000000E+000
  -200.000000000000        10.0000000000000       0.000000000000000E+000
  -200.000000000000       -10.0000000000000       0.000000000000000E+000
  -250.000000000000        10.0000000000000       0.000000000000000E+000
  -250.000000000000       -10.0000000000000       0.000000000000000E+000
   250.000000000000       -10.0000000000000       0.000000000000000E+000
   250.000000000000        10.0000000000000       0.000000000000000E+000
   200.000000000000       -5.00000000000000       0.000000000000000E+000
   200.000000000000       0.000000000000000E+000  0.000000000000000E+000
   200.000000000000        5.00000000000000       0.000000000000000E+000
   195.000000000000        10.0000000000000       0.000000000000000E+000
   190.000000000000        10.0000000000000       0.000000000000000E+000
   185.000000000000        10.0000000000000       0.000000000000000E+000
   180.000000000000        10.0000000000000       0.000000000000000E+000
   175.000000000000        10.0000000000000       0.000000000000000E+000
   170.000000000000        10.0000000000000       0.000000000000000E+000
   165.000000000000        10.0000000000000       0.000000000000000E+000
   160.000000000000        10.0000000000000       0.000000000000000E+000
   155.000000000000        10.0000000000000       0.000000000000000E+000
   150.000000000000        5.00000000000000       0.000000000000000E+000
   150.000000000000       0.000000000000000E+000  0.000000000000000E+000
   150.000000000000       -5.00000000000000       0.000000000000000E+000
   155.000000000000       -10.0000000000000       0.000000000000000E+000
   160.000000000000       -10.0000000000000       0.000000000000000E+000
   165.000000000000       -10.0000000000000       0.000000000000000E+000
   170.000000000000       -10.0000000000000       0.000000000000000E+000
   175.000000000000       -10.0000000000000       0.000000000000000E+000
   180.000000000000       -10.0000000000000       0.000000000000000E+000
   185.000000000000       -10.0000000000000       0.000000000000000E+000
   190.000000000000       -10.0000000000000       0.000000000000000E+000
   195.000000000000       -10.0000000000000       0.000000000000000E+000
   145.000000000000        10.0000000000000       0.000000000000000E+000
   140.000000000000        10.0000000000000       0.000000000000000E+000
   135.000000000000        10.0000000000000       0.000000000000000E+000
   130.000000000000        10.0000000000000       0.000000000000000E+000
   125.000000000000        10.0000000000000       0.000000000000000E+000
   120.000000000000        10.0000000000000       0.000000000000000E+000
   115.000000000000        10.0000000000000       0.000000000000000E+000
   110.000000000000        10.0000000000000       0.000000000000000E+000
   105.000000000000        10.0000000000000       0.000000000000000E+000
   100.000000000000        5.00000000000000       0.000000000000000E+000
   100.000000000000       0.000000000000000E+000  0.000000000000000E+000
   100.000000000000       -5.00000000000000       0.000000000000000E+000
   105.000000000000       -10.0000000000000       0.000000000000000E+000
   110.000000000000       -10.0000000000000       0.000000000000000E+000
   115.000000000000       -10.0000000000000       0.000000000000000E+000
   120.000000000000       -10.0000000000000       0.000000000000000E+000
   125.000000000000       -10.0000000000000       0.000000000000000E+000
   130.000000000000       -10.0000000000000       0.000000000000000E+000
   135.000000000000       -10.0000000000000       0.000000000000000E+000
   140.000000000000       -10.0000000000000       0.000000000000000E+000
   145.000000000000       -10.0000000000000       0.000000000000000E+000
   95.0000000000000        10.0000000000000       0.000000000000000E+000
   90.0000000000000        10.0000000000000       0.000000000000000E+000
   85.0000000000000        10.0000000000000       0.000000000000000E+000
   80.0000000000000        10.0000000000000       0.000000000000000E+000
   75.0000000000000        10.0000000000000       0.000000000000000E+000
   70.0000000000000        10.0000000000000       0.000000000000000E+000
   65.0000000000000        10.0000000000000       0.000000000000000E+000
   60.0000000000000        10.0000000000000       0.000000000000000E+000
   55.0000000000000        10.0000000000000       0.000000000000000E+000
   50.0000000000000        5.00000000000000       0.000000000000000E+000
   50.0000000000000       0.000000000000000E+000  0.000000000000000E+000
   50.0000000000000       -5.00000000000000       0.000000000000000E+000
   55.0000000000000       -10.0000000000000       0.000000000000000E+000
   60.0000000000000       -10.0000000000000       0.000000000000000E+000
   65.0000000000000       -10.0000000000000       0.000000000000000E+000
   70.0000000000000       -10.0000000000000       0.000000000000000E+000
   75.0000000000000       -10.0000000000000       0.000000000000000E+000
   80.0000000000000       -10.0000000000000       0.000000000000000E+000
   85.0000000000000       -10.0000000000000       0.000000000000000E+000
   90.0000000000000       -10.0000000000000       0.000000000000000E+000
   95.0000000000000       -10.0000000000000       0.000000000000000E+000
   45.0000000000000        10.0000000000000       0.000000000000000E+000
   40.0000000000000        10.0000000000000       0.000000000000000E+000
   35.0000000000000        10.0000000000000       0.000000000000000E+000
   30.0000000000000        10.0000000000000       0.000000000000000E+000
   25.0000000000000        10.0000000000000       0.000000000000000E+000
   20.0000000000000        10.0000000000000       0.000000000000000E+000
   15.0000000000000        10.0000000000000       0.000000000000000E+000
   10.0000000000000        10.0000000000000       0.000000000000000E+000
   5.00000000000000        10.0000000000000       0.000000000000000E+000
  0.000000000000000E+000   5.00000000000000       0.000000000000000E+000
  0.000000000000000E+000  0.000000000000000E+000  0.000000000000000E+000
  0.000000000000000E+000  -5.00000000000000       0.000000000000000E+000
   5.00000000000000       -10.0000000000000       0.000000000000000E+000
   10.0000000000000       -10.0000000000000       0.000000000000000E+000
   15.0000000000000       -10.0000000000000       0.000000000000000E+000
   20.0000000000000       -10.0000000000000       0.000000000000000E+000
   25.0000000000000       -10.0000000000000       0.000000000000000E+000
   30.0000000000000       -10.0000000000000       0.000000000000000E+000
   35.0000000000000       -10.0000000000000       0.000000000000000E+000
   40.0000000000000       -10.0000000000000       0.000000000000000E+000
   45.0000000000000       -10.0000000000000       0.000000000000000E+000
  -5.00000000000000        10.0000000000000       0.000000000000000E+000
  -10.0000000000000        10.0000000000000       0.000000000000000E+000
  -15.0000000000000        10.0000000000000       0.000000000000000E+000
  -20.0000000000000        10.0000000000000       0.000000000000000E+000
  -25.0000000000000        10.0000000000000       0.000000000000000E+000
  -30.0000000000000        10.0000000000000       0.000000000000000E+000
  -35.0000000000000        10.0000000000000       0.000000000000000E+000
  -40.0000000000000        10.0000000000000       0.000000000000000E+000
  -45.0000000000000        10.0000000000000       0.000000000000000E+000
  -50.0000000000000        5.00000000000000       0.000000000000000E+000
  -50.0000000000000       0.000000000000000E+000  0.000000000000000E+000
  -50.0000000000000       -5.00000000000000       0.000000000000000E+000
  -45.0000000000000       -10.0000000000000       0.000000000000000E+000
  -40.0000000000000       -10.0000000000000       0.000000000000000E+000
  -35.0000000000000       -10.0000000000000       0.000000000000000E+000
  -30.0000000000000       -10.0000000000000       0.000000000000000E+000
  -25.0000000000000       -10.0000000000000       0.000000000000000E+000
  -20.0000000000000       -10.0000000000000       0.000000000000000E+000
  -15.0000000000000       -10.0000000000000       0.000000000000000E+000
  -10.0000000000000       -10.0000000000000       0.000000000000000E+000
  -5.00000000000000       -10.0000000000000       0.000000000000000E+000
  -55.0000000000000        10.0000000000000       0.000000000000000E+000
  -60.0000000000000        10.0000000000000       0.000000000000000E+000
  -65.0000000000000        10.0000000000000       0.000000000000000E+000
  -70.0000000000000        10.0000000000000       0.000000000000000E+000
[...]
 CELL_DATA        2884
 POINT_DATA        4085
 FIELD Result            2
 Displacement_Load_Case01            3        4085 double
 -3.683713787707781E-002  2.664293659822645E-004 -0.106656978342209     
 -3.683707989475831E-002 -2.660393345679795E-004 -0.106656942235857     
 -8.764182161874613E-003  1.089374219498676E-003 -0.159665852204049     
 -8.764359307345480E-003 -1.088148589311275E-003 -0.159665900289964     
  1.224482065033797E-002  3.974980516485982E-004 -0.117399547912131     
  1.224478542815534E-002 -3.955043024707552E-004 -0.117399588033457     
  4.098371454675918E-003 -2.453075001879507E-004 -6.149929717067047E-002
  4.098549940386864E-003  2.471771891680338E-004 -6.149938346681553E-002
  1.158525336442170E-007 -7.267365252667828E-004 -6.650474735841277E-003
  2.490016837408625E-007  7.264829096377101E-004 -6.650446892181690E-003
 -4.114515164268573E-003 -2.755296479655077E-004 -6.150915463417864E-002
 -4.099135388181985E-003  2.177676412618290E-004 -6.151293936739295E-002
 -1.226748570913421E-002  3.336271492839275E-004 -0.117464618312434     
 -1.226330594444601E-002 -4.600909757727356E-004 -0.117469756556031     
  8.762915616461949E-003  9.989417983561134E-004 -0.159866683099479     
  8.773016686395510E-003 -1.181040775980424E-003 -0.159872960071625     
  3.681572000633650E-002 -3.599734374567377E-004 -0.107066835369786     
  3.680714123551436E-002  1.527508894345131E-004 -0.107091347208361     
  2.626971669180137E-004 -5.553390898176990E-004 -3.422840859750792E-004
  2.470598205184370E-004  3.759833874519327E-004 -3.714931003431261E-004
 -1.300585251467470E-004  1.968678207186657E-004 -1.687351709858378E-004
 -1.300570166179286E-004 -1.968700960146242E-004 -1.687311339914882E-004
 -2.467530686125770E-002  1.338046161228442E-004 -0.279558141830955     
 -2.368956319971609E-002  1.936903363704532E-007 -0.376712765038922     
 -2.467526162810062E-002 -1.334165715147198E-004 -0.279558193609174     
 -2.813329526906929E-002 -1.127292610474799E-003  -4.48738514031738     
 -2.437261333885473E-002 -2.006127238385032E-005  -14.7103711271011     
 -2.220662370101675E-002  7.758257236523694E-004  -25.6660850712705     
 -2.038926508414798E-002  1.085298387304896E-003  -33.7039533677183     
 -1.856877498620001E-002  1.159186911847327E-003  -36.6332526376956     
 -1.670217298892683E-002  1.158438716574008E-003  -33.7228960879315     
 -1.480879070543142E-002  1.138640447106583E-003  -25.7018748675331     
 -1.289364449324501E-002  1.104409405745516E-003  -14.7588818878089     
 -1.091887926412127E-002  1.061828834243416E-003  -4.54230014455366     
 -9.205678528571182E-003  5.454290489452932E-004 -0.459604051936930     
 -9.241398677579084E-003  6.129993489793662E-007 -0.626810395460738     
 -9.205770271044859E-003 -5.442031434793551E-004 -0.459603939297095     
 -1.091906477302213E-002 -1.060700363809106E-003  -4.54230019064596     
 -1.289383218160789E-002 -1.103380486700694E-003  -14.7588819332916     
 -1.480897645704895E-002 -1.137710832194186E-003  -25.7018749114789     
 -1.670235314755458E-002 -1.157606427804360E-003  -33.7228961310328     
 -1.856894589600969E-002 -1.158448241563822E-003  -36.6332526794476     
 -2.038942308911362E-002 -1.084647795987523E-003  -33.7039534084508     
 -2.220676516227681E-002 -7.752558356831130E-004  -25.6660851108238     
 -2.437273461456289E-002  2.055930667532267E-005  -14.7103711654694     
 -2.813339111498978E-002  1.127729120751919E-003  -4.48738517765144     
 -7.274475147455200E-003  1.124056055266253E-003  -4.53625443425208     
 -5.605865157098053E-003  1.085311673330180E-003  -14.7511150587304     
 -3.880134826685699E-003  1.059028369528126E-003  -25.6956715303530     
 -2.145863432538986E-003  1.051789341758431E-003  -33.7206160559085     
 -4.240074680518583E-004  1.048280398303591E-003  -36.6361347982634     
  1.274266329787268E-003  1.014506360797652E-003  -33.7123236172493     
  2.969665080231646E-003  8.737204598948577E-004  -25.6790427001173     
  4.823713707513426E-003  5.106188059038953E-004  -14.7260924330816     
  7.405741697701393E-003  5.082348575983725E-006  -4.50268660934162     
  6.691991674388377E-003  1.991630659105393E-004 -0.504524150638832     
  6.241903224541307E-003  9.996634780863199E-007 -0.719061518800518     
  6.691963315984663E-003 -1.971651257389622E-004 -0.504523971937593     
  7.405669177252230E-003 -3.122642544085487E-006  -4.50268664890327     
  4.823613668405273E-003 -5.087090356703331E-004  -14.7260924744493     
  2.969542277593858E-003 -8.718724337470510E-004  -25.6790427416129     
  1.274124389010431E-003 -1.012730321512588E-003  -33.7123236602180     
 -4.241649271929195E-004 -1.046585018379350E-003  -36.6361348416152     
 -2.146032778593570E-003 -1.050181473224428E-003  -33.7206161005010     
 -3.880312429953975E-003 -1.057513045487506E-003  -25.6956715755506     
 -5.606047386494123E-003 -1.083892209912453E-003  -14.7511151049609     
 -7.274657911021357E-003 -1.122734052357769E-003  -4.53625448124989     
  8.725152030446657E-003  7.888223918027526E-004  -4.49291199583793     
  7.462707198415378E-003  2.830308635052214E-004  -14.7060771801202     
  6.928284940906603E-003 -8.034303767777412E-005  -25.6484967743709     
  6.552824507034932E-003 -2.214827422055972E-004  -33.6711714040684     
  6.175498653465755E-003 -2.552072643054549E-004  -36.5844349964134     
  5.776399568082135E-003 -2.559140336925608E-004  -33.6586422732232     
  5.364989072160977E-003 -2.513725998572702E-004  -25.6237746981809     
  4.948686367903553E-003 -2.474083650435343E-004  -14.6698476737289     
  4.528426431974149E-003 -2.443037236972064E-004  -4.44617256740558     
  4.122351603442469E-003 -1.222436391065309E-004 -0.499568931740988     
  4.124246459563683E-003  9.431940880373296E-007 -0.741496232547400     
  4.122445507383891E-003  1.241259427600233E-004 -0.499568723805520     
  4.528566591390806E-003  2.462496037991141E-004  -4.44617264694919     
  4.948790900083504E-003  2.494093840767921E-004  -14.6698477502813     
  5.365061707523457E-003  2.534118448543095E-004  -25.6237747689435     
  5.776444162390094E-003  2.579764742628972E-004  -33.6586423405395     
  6.175519025665439E-003  2.572798474961184E-004  -36.5844350582803     
  6.552824471079552E-003  2.235543107256635E-004  -33.6711714621853     
  6.928268297067590E-003  8.240434832143108E-005  -25.6484968273226     
  7.462677746455732E-003 -2.809873995474370E-004  -14.7060772290646     
  8.725114693633833E-003 -7.868026969975852E-004  -4.49291203979771     
  3.704743686336360E-003 -2.476490620754748E-004  -4.43742331859660     
  3.301541475950904E-003 -2.456496834324077E-004  -14.6501801239698     
  2.895300034147705E-003 -2.441065911150934E-004  -25.5916474536589     
  2.488460304961708E-003 -2.430932686203551E-004  -33.6131447691303     
  2.081259510482361E-003 -2.415090817895983E-004  -36.5252667791332     
  1.671731139947963E-003 -2.386825518804439E-004  -33.5986614052492     
  1.254385640852698E-003 -2.372203172069749E-004  -25.5635590049466     
  8.208312298805049E-004 -2.565045181125959E-004  -14.6102467177993     
  3.771289354560255E-004 -3.205946076322561E-004  -4.38827593278610     
 -2.101833390534179E-006 -2.957030823131569E-004 -0.461531818110265     
 -1.622680554018422E-006 -1.515445214547557E-007 -0.712441931460598     
 -8.728461440238888E-007  2.954001559276828E-004 -0.461531518501838     
  3.778411821192506E-004  3.203609578008903E-004  -4.38827591243450     
  8.215661147411334E-004  2.567273996716924E-004  -14.6102467120507     
  1.255032002248597E-003  2.378000772113128E-004  -25.5635590082606     
  1.672291317061708E-003  2.395546521857964E-004  -33.5986614223165     
  2.081741124504309E-003  2.426318368619610E-004  -36.5252668059401     
  2.488869643847942E-003  2.444291941267789E-004  -33.6131448090764     
  2.895643052156382E-003  2.456211125854114E-004  -25.5916475039208     
  3.301824079129758E-003  2.473111381916481E-004  -14.6501801868400     
  3.704971585648574E-003  2.494288554407257E-004  -4.43742339219748     
 -3.814196453469424E-004 -3.212927837371117E-004  -4.38827289463574     
 -8.275552421869447E-004 -2.592118297325247E-004  -14.6102433096679     
 -1.262860004938191E-003 -2.423556333189820E-004  -25.5635572186916     
 -1.681723789032798E-003 -2.465715771859593E-004  -33.5986625104894     
 -2.092635626092066E-003 -2.525019775052173E-004  -36.5252714263215     
 -2.501096127767271E-003 -2.575165982100378E-004  -33.6131528910664     
 -2.909065136971744E-003 -2.622372667144791E-004  -25.5916584434873     
 -3.316295288740189E-003 -2.677045598324348E-004  -14.6501926841830     
 -3.720317815637924E-003 -2.737750404788329E-004  -4.43743571481597     
 -4.134789579266983E-003 -1.522454840802223E-004 -0.499752769999186     
 -4.132803685065703E-003 -2.884920180349710E-005 -0.741732233072078     
 -4.127093201372746E-003  9.453100491335940E-005 -0.499754373069401     
 -3.705030804545642E-003  2.241452883925725E-004  -4.43743911869506     
 -3.301463609244119E-003  2.260679734730182E-004  -14.6501957057391     
 -2.894985441949595E-003  2.282819150445841E-004  -25.5916610834924     
 -2.488050163926555E-003  2.307930128700788E-004  -33.6131551500237     
 -2.080905065154878E-003  2.324228751303524E-004  -36.5252733023328     
 -1.671590114700872E-003  2.324089176543257E-004  -33.5986640068882     
 -1.254603556144255E-003  2.332385460464357E-004  -25.5635583306725     
 -8.214515548965845E-004  2.541569830731785E-004  -14.6102440435757     
 -3.778478160761600E-004  3.191914464405723E-004  -4.38827324240139     
 -4.545555932173005E-003 -2.786866165674364E-004  -4.44618150462988     
 -4.966546421525024E-003 -2.860117351310064E-004  -14.6698600898723     
 -5.383406943666438E-003 -2.941449391424904E-004  -25.6237938822302     
 -5.795224041220863E-003 -3.027324535076533E-004  -33.6586701218765     
 -6.194573518423692E-003 -3.058758490459763E-004  -36.5844724788280     
 -6.571982548377387E-003 -2.757024728199331E-004  -33.6712182218350     
 -6.947384609521509E-003 -1.376523413339684E-004  -25.6485519157080     
 -7.481807007263836E-003  2.232872564863870E-004  -14.7061385225315     
 -8.744933603566107E-003  7.272515011048221E-004  -4.49297695360948     
 -6.707599521214070E-003  1.350847665728652E-004 -0.504942885606186     
 -6.255024824446573E-003 -6.327008248637126E-005 -0.719575216879500     
 -6.703718981237323E-003 -2.616057859798791E-004 -0.504945185408880     
 -8.737363168370565E-003 -8.500915265043507E-004  -4.49298195316716     
 -7.472066586490023E-003 -3.411942673327451E-004  -14.7061433892704     
 -6.935928839449827E-003  2.553512818591019E-005  -25.6485566450581     
 -6.559095246386105E-003  1.701263307307047E-004  -33.6712228178511     
 -6.180538150933429E-003  2.074871327096053E-004  -36.5844769377909     
 -5.780326014528770E-003  2.120339962482415E-004  -33.6586744472301     
 -5.367932041709756E-003  2.114966125045562E-004  -25.6237980707691     
 -4.950780373430933E-003  2.116336341638129E-004  -14.6698641446126     
 -4.529799228169593E-003  2.126589958700194E-004  -4.44618542260699     
 -7.423995460854715E-003 -6.098935874427433E-005  -4.50275491708834     
 -4.839762998313952E-003  4.429347091879666E-004  -14.7261713965204     
 -2.984191338852807E-003  8.039533753151410E-004  -25.6791377718610     
 -1.287327181308729E-003  9.421386655359210E-004  -33.7124377863118     
  4.125547068346148E-004  9.729897727580447E-004  -36.6362694676030     
  2.136187737651551E-003  9.734186871439272E-004  -33.7207704895466     
  3.872392087624475E-003  9.775308352704764E-004  -25.6958438415301     
  5.600190561319827E-003  1.000723852189791E-003  -14.7513016045089     
  7.270974713724218E-003  1.036476452572871E-003  -4.53645092141860     
  9.207196923610229E-003  4.543021861941594E-004 -0.460351585804645     
  9.245503634741624E-003 -9.115373328358016E-005 -0.627673233509451     
  9.212398052785217E-003 -6.365583833470869E-004 -0.460354516319873     
  7.282047478380611E-003 -1.212812766333601E-003  -4.53645707755506     
  5.611799674392880E-003 -1.170909956842970E-003  -14.7513076526103     
  3.884224692156936E-003 -1.141396257507473E-003  -25.6958497711140     
  2.147959287913738E-003 -1.130928492355356E-003  -33.7207763098579     
  4.239810560052040E-004 -1.124245520353960E-003  -36.6362751703589     
 -1.276529961303455E-003 -1.087384068522844E-003  -33.7124433789446     
 -2.974305276642001E-003 -9.435749378674846E-004  -25.6791432477117     
 -4.831070524364729E-003 -5.774231876586196E-004  -14.7261767615626     
 -7.416949873763940E-003 -6.896150022928250E-005  -4.50276016583577     
  1.092002845096682E-002  9.686350082180276E-004  -4.54251050294479     
  1.289728346101151E-002  1.008637852353509E-003  -14.7591145766809     
  1.481504404080581E-002  1.040476799873410E-003  -25.7021386041248     
  1.671123376517572E-002  1.058134674273167E-003  -33.7231948461755     
  1.858095149498631E-002  1.057154518478373E-003  -36.6335870261437     
  2.040499043002163E-002  9.823892682224340E-004  -33.7043199759069     
  2.222607778486187E-002  6.739238151835847E-004  -25.6664779476637     
  2.439392486883268E-002 -1.175331322913824E-004  -14.7107811384386     
  2.814740392979067E-002 -1.217865065121195E-003  -4.48780155964054     
  2.472181560624238E-002 -2.325540142509513E-004 -0.280734766619671     
  2.374069631872783E-002 -1.038962494109410E-004 -0.377981402489380     
  2.471949736468547E-002  2.489605136761154E-005 -0.280746943626043     
  2.814316863229543E-002  1.007969377456666E-003  -4.48782426679487     
  2.439269682632670E-002 -9.306802492569322E-005  -14.7108020033410     
  2.222735597458544E-002 -8.839878303996527E-004  -25.6664969982210     
  2.040846937150724E-002 -1.190778208176704E-003  -33.7043371935459     
  1.858632941374527E-002 -1.262842760017405E-003  -36.6336024202858     
  1.671820669362061E-002 -1.260248474135548E-003  -33.7232084164604     
  1.482330772199892E-002 -1.238294917441235E-003  -25.7021503418605     
  1.290653393247328E-002 -1.201584993090104E-003  -14.7591244997090     
  1.092993413485700E-002 -1.156282635684544E-003  -4.54251858394527     
  2.727995722587210E-002  4.911623012666328E-004  -4.48608960550593     
  2.266007895857664E-002 -6.096212355165507E-004  -14.6949781180507     
  1.962540102127049E-002 -1.400556090343125E-003  -25.6277085121684     
  1.693689422592233E-002 -1.708794000196139E-003  -33.6369517189040     
  1.424622678487117E-002 -1.785890858066400E-003  -36.5356413307229     
  1.151668257870120E-002 -1.793393925983576E-003  -33.5958935555400     
  8.784002693020161E-003 -1.779039112978372E-003  -25.5505449318383     
  6.080447590158359E-003 -1.697255210678111E-003  -14.5914817628395     
  3.360284768787852E-003 -1.435812876291359E-003  -4.37116319079320     
  6.158687767199471E-004 -2.393273831104272E-004 -2.090392916612105E-003
  7.197226026191269E-004 -8.971283390201116E-005 -2.026437978422228E-003
  6.080272459139613E-004  5.991507730796461E-005 -2.105032860227273E-003
  3.347797859428398E-003  1.250792542405380E-003  -4.37119194072657     
  6.070504682670408E-003  1.507407527826636E-003  -14.5915100327500     
  8.776121169938308E-003  1.585523748066801E-003  -25.5505727403100     
  1.151037907390026E-002  1.597116540149467E-003  -33.5959208861584     
  1.424100915459266E-002  1.587519757382536E-003  -36.5356681979034     
  1.693227091987311E-002  1.508748945149372E-003  -33.6369781100766     
  1.962088263659672E-002  1.199009358680798E-003  -25.6277344381967     
  2.265517898737572E-002  4.065446165671789E-004  -14.6950035696498     
  2.727400009120286E-002 -6.960062568429307E-004  -4.48611459051064     
 -2.723337650778510E-002 -5.888706335211587E-004  -4.48569080541053     
 -2.257351109490317E-002  5.191460955914041E-004  -14.6945933945780     
 -1.950771731363362E-002  1.315403973084095E-003  -25.6273415596038     
 -1.678963208934138E-002  1.626325414404870E-003  -33.6366074978562     
 -1.406880573739435E-002  1.705726810409165E-003  -36.5353240504126     
 -1.130919985477676E-002  1.717722064148938E-003  -33.5956072386594     
 -8.551172482366797E-003  1.712039134530453E-003  -25.5502912311345     
 -5.839767172069667E-003  1.635688996192369E-003  -14.5912604725888     
 -3.150203412743951E-003  1.356158828413559E-003  -4.37096988336329     
 -2.691541593604800E-004  6.682228254044364E-005 -8.973933214546276E-004
 -3.132959700484765E-004 -8.429839082733041E-010 -8.656852249170425E-004
 -2.691535216222819E-004 -6.682414333911108E-005 -8.973924721545542E-004
 -3.150178112001333E-003 -1.356143469910042E-003  -4.37096987578251     
 -5.839722563654349E-003 -1.635650438661338E-003  -14.5912604621567     
 -8.551112085390739E-003 -1.711968508530480E-003  -25.5502912173226     
 -1.130912722431366E-002 -1.717612395570048E-003  -33.5956072218366     
 -1.406872450663661E-002 -1.705572870051607E-003  -36.5353240303657     
 -1.678954588626009E-002 -1.626123812335463E-003  -33.6366074746439     
 -1.950762974784175E-002 -1.315153138771220E-003  -25.6273415333214     
 -2.257342577976079E-002 -5.188459187924539E-004  -14.6945933649718     
 -2.723329866008748E-002  5.892187995915859E-004  -4.48569077291466     
 -2.568351205405702E-002  1.487338355144540E-003  -4.67232416061344     
 -2.385368096095156E-002  2.165441325349644E-007  -4.77629493172705     
 -2.568346359102409E-002 -1.486906409625201E-003  -4.67232421796940     
 -2.428792262706960E-002  3.924818113986195E-004  -14.9063992106494     
 -2.380852106674378E-002  2.459523376877916E-007  -15.0183098699299     
 -2.428786413238608E-002 -3.919883952584677E-004  -14.9063992737599     
 -2.246550511971121E-002 -2.913145950928594E-004  -25.8729237244219     
 -2.245141221448885E-002  2.821712985973931E-007  -25.9932200423704     
 -2.246543654832312E-002  2.918803139361536E-004  -25.8729237933360     
 -2.054799009538467E-002 -5.380996191724402E-004  -33.9221916575058     
 -2.060428242271984E-002  3.230783104496935E-007  -34.0504410503423     
 -2.054791320634360E-002  5.387468924615314E-004  -33.9221917322891     
 -1.862432996215727E-002 -5.895529927716441E-004  -36.8636550420391     
 -1.865759125277614E-002  3.676728891286167E-007  -36.9993448172356     
 -1.862424661283821E-002  5.902891694055270E-004  -36.8636551229443     
 -1.670870898940088E-002 -5.848656121388295E-004  -33.9665525257255     
 -1.671901880687053E-002  4.150338154486298E-007  -34.1087234605154     
 -1.670862101799901E-002  5.856962328409263E-004  -33.9665526126318     
 -1.479886540110409E-002 -5.675104686752294E-004  -25.9595594927254     
 -1.480186444842573E-002  4.642479822314685E-007  -26.1077626136122     
 -1.479877464649232E-002  5.684392472807146E-004  -25.9595595861095     
 -1.289456421512854E-002 -5.380958241906357E-004  -15.0311541238949     
 -1.291162751925559E-002  5.143757047713167E-007  -15.1849174931675     
 -1.289447248799273E-002  5.391246230164886E-004  -15.0311542234332     
 -1.100617583546189E-002 -4.961434698862357E-004  -4.82891047316369     
 -1.107225807177571E-002  5.641536534203372E-007  -4.98887215924592     
 -1.100608442872223E-002  4.972723937194865E-004  -4.82891057960074     
 -7.364735926494431E-003 -5.941819311674710E-004  -4.84432718420322     
 -7.431194899018232E-003  6.614919460904064E-007  -5.01575546164834     
 -7.364645871822302E-003  5.955040992047704E-004  -4.84432730285561     
 -5.610324704287005E-003 -5.557151650282406E-004  -15.0662961705830     
 -5.627899413768082E-003  7.102217546663952E-007  -15.2429715776099     
 -5.610235690325231E-003  5.571353564939644E-004  -15.0662962950511     
 -3.871247455512027E-003 -5.329711577813063E-004  -26.0177294915052     
 -3.870594393752678E-003  7.586232174850445E-007  -26.2003953911105     
 -3.871160760086282E-003  5.344879208154512E-004  -26.0177296223277     
 -2.134670693067803E-003 -5.277856976274521E-004  -34.0500744072474     