# vtk DataFile Version 3.0
 Bridge                                                                         
  
ASCII
DATASET UNSTRUCTURED_GRID
 POINTS        4085 double
   200.000000000000       -10.0000000000000       0.000000000000000E+000
   200.000000000000        10.0000000000000       0.000000000000000E+000
   150.000000000000        10.0000000000000       0.000000000000000E+000
   150.000000000000       -10.0000000000000       0.000000000000000E+000
   100.000000000000        10.0000000000000       0.000000000000000E+000
   100.000000000000       -10.0000000000000       0.000000000000000E+000
   50.0000000000000        10.0000000000000       0.000000000000000E+000
   50.0000000000000       -10.0000000000000       0.000000000000000E+000
  0.000000000000000E+000   10.0000000000000       0.000000000000000E+000
  0.000000000000000E+000  -10.0000000000000       0.000000000000000E+000
  -50.0000000000000        10.0000000000000       0.000000000000000E+000
  -50.0000000000000       -10.0000000000000       0.000000000000000E+000
  -100.000000000000        10.0000000000000       0.000000000000000E+000
  -100.000000000000       -10.0000000000000       0.000000000000000E+000
  -150.000000000000        10.0000000000000       0.000000000000000E+000
  -150.000000000000       -10.0000000000000       0.000000000000000E+000
  -200.000000000000        10.0000000000000       0.000000000000000E+000
  -200.000000000000       -10.0000000000000       0.000000000000000E+000
  -250.000000000000        10.0000000000000       0.000000000000000E+000
  -250.000000000000       -10.0000000000000       0.000000000000000E+000
   250.000000000000       -10.0000000000000       0.000000000000000E+000
   250.000000000000        10.0000000000000       0.000000000000000E+000
   200.000000000000       -5.00000000000000       0.000000000000000E+000
   200.000000000000       0.000000000000000E+000  0.000000000000000E+000
   200.000000000000        5.00000000000000       0.000000000000000E+000
   195.000000000000        10.0000000000000       0.000000000000000E+000
   190.000000000000        10.0000000000000       0.000000000000000E+000
   185.000000000000        10.0000000000000       0.000000000000000E+000
   180.000000000000        10.0000000000000       0.000000000000000E+000
   175.000000000000        10.0000000000000       0.000000000000000E+000
   170.000000000000        10.0000000000000       0.000000000000000E+000
   165.000000000000        10.0000000000000       0.000000000000000E+000
   160.000000000000        10.0000000000000       0.000000000000000E+000
   155.000000000000        10.0000000000000       0.000000000000000E+000
   150.000000000000        5.00000000000000       0.000000000000000E+000
   150.000000000000       0.000000000000000E+000  0.000000000000000E+000
   150.000000000000       -5.00000000000000       0.000000000000000E+000
   155.000000000000       -10.0000000000000       0.000000000000000E+000
   160.000000000000       -10.0000000000000       0.000000000000000E+000
   165.000000000000       -10.0000000000000       0.000000000000000E+000
   170.000000000000       -10.0000000000000       0.000000000000000E+000
   175.000000000000       -10.0000000000000       0.000000000000000E+000
   180.000000000000       -10.0000000000000       0.000000000000000E+000
   185.000000000000       -10.0000000000000       0.000000000000000E+000
   190.000000000000       -10.0000000000000       0.000000000000000E+000
   195.000000000000       -10.0000000000000       0.000000000000000E+000
   145.000000000000        10.0000000000000       0.000000000000000E+000
   140.000000000000        10.0000000000000       0.000000000000000E+000
   135.000000000000        10.0000000000000       0.000000000000000E+000
   130.000000000000        10.0000000000000       0.000000000000000E+000
   125.000000000000        10.0000000000000       0.000000000000000E+000
   120.000000000000        10.0000000000000       0.000000000000000E+000
   115.000000000000        10.0000000000000       0.000000000000000E+000
   110.000000000000        10.0000000000000       0.000000000000000E+000
   105.000000000000        10.0000000000000       0.000000000000000E+000
   100.000000000000        5.00000000000000       0.000000000000000E+000
   100.000000000000       0.000000000000000E+000  0.000000000000000E+000
   100.000000000000       -5.00000000000000       0.000000000000000E+000
   105.000000000000       -10.0000000000000       0.000000000000000E+000
   110.000000000000       -10.0000000000000       0.000000000000000E+000
   115.000000000000       -10.0000000000000       0.000000000000000E+000
   120.000000000000       -10.0000000000000       0.000000000000000E+000
   125.000000000000       -10.0000000000000       0.000000000000000E+000
   130.000000000000       -10.0000000000000       0.000000000000000E+000
   135.000000000000       -10.0000000000000       0.000000000000000E+000
   140.000000000000       -10.0000000000000       0.000000000000000E+000
   145.000000000000       -10.0000000000000       0.000000000000000E+000
   95.0000000000000        10.0000000000000       0.000000000000000E+000
   90.0000000000000        10.0000000000000       0.000000000000000E+000
   85.0000000000000        10.0000000000000       0.000000000000000E+000
   80.0000000000000        10.0000000000000       0.000000000000000E+000
   75.0000000000000        10.0000000000000       0.000000000000000E+000
   70.0000000000000        10.0000000000000       0.000000000000000E+000
   65.0000000000000        10.0000000000000       0.000000000000000E+000
   60.0000000000000        10.0000000000000       0.000000000000000E+000
   55.0000000000000        10.0000000000000       0.000000000000000E+000
   50.0000000000000        5.00000000000000       0.000000000000000E+000
   50.0000000000000       0.000000000000000E+000  0.000000000000000E+000
   50.0000000000000       -5.00000000000000       0.000000000000000E+000
   55.0000000000000       -10.0000000000000       0.000000000000000E+000
   60.0000000000000       -10.0000000000000       0.000000000000000E+000
   65.0000000000000       -10.0000000000000       0.000000000000000E+000
   70.0000000000000       -10.0000000000000       0.000000000000000E+000
   75.0000000000000       -10.0000000000000       0.000000000000000E+000
   80.0000000000000       -10.0000000000000       0.000000000000000E+000
   85.0000000000000       -10.0000000000000       0.000000000000000E+000
   90.0000000000000       -10.0000000000000       0.000000000000000E+000
   95.0000000000000       -10.0000000000000       0.000000000000000E+000
   45.0000000000000        10.0000000000000       0.000000000000000E+000
   40.0000000000000        10.0000000000000       0.000000000000000E+000
   35.0000000000000        10.0000000000000       0.000000000000000E+000
   30.0000000000000        10.0000000000000       0.000000000000000E+000
   25.0000000000000        10.0000000000000       0.000000000000000E+000
   20.0000000000000        10.0000000000000       0.000000000000000E+000
   15.0000000000000        10.0000000000000       0.000000000000000E+000
   10.0000000000000        10.0000000000000       0.000000000000000E+000
   5.00000000000000        10.0000000000000       0.000000000000000E+000
  0.000000000000000E+000   5.00000000000000       0.000000000000000E+000
  0.000000000000000E+000  0.000000000000000E+000  0.000000000000000E+000
  0.000000000000000E+000  -5.00000000000000       0.000000000000000E+000
   5.00000000000000       -10.0000000000000       0.000000000000000E+000
   10.0000000000000       -10.0000000000000       0.000000000000000E+000
   15.0000000000000       -10.0000000000000       0.000000000000000E+000
   20.0000000000000       -10.0000000000000       0.000000000000000E+000
   25.0000000000000       -10.0000000000000       0.000000000000000E+000
   30.0000000000000       -10.0000000000000       0.000000000000000E+000
   35.0000000000000       -10.0000000000000       0.000000000000000E+000
   40.0000000000000       -10.0000000000000       0.000000000000000E+000
   45.0000000000000       -10.0000000000000       0.000000000000000E+000
  -5.00000000000000        10.0000000000000       0.000000000000000E+000
  -10.0000000000000        10.0000000000000       0.000000000000000E+000
  -15.0000000000000        10.0000000000000       0.000000000000000E+000
  -20.0000000000000        10.0000000000000       0.000000000000000E+000
  -25.0000000000000        10.0000000000000       0.000000000000000E+000
  -30.0000000000000        10.0000000000000       0.000000000000000E+000
  -35.0000000000000        10.0000000000000       0.000000000000000E+000
  -40.0000000000000        10.0000000000000       0.000000000000000E+000
  -45.0000000000000        10.0000000000000       0.000000000000000E+000
  -50.0000000000000        5.00000000000000       0.000000000000000E+000
  -50.0000000000000       0.000000000000000E+000  0.000000000000000E+000
  -50.0000000000000       -5.00000000000000       0.000000000000000E+000
  -45.0000000000000       -10.0000000000000       0.000000000000000E+000
  -40.0000000000000       -10.0000000000000       0.000000000000000E+000
  -35.0000000000000       -10.0000000000000       0.000000000000000E+000
  -30.0000000000000       -10.0000000000000       0.000000000000000E+000
  -25.0000000000000       -10.0000000000000       0.000000000000000E+000
  -20.0000000000000       -10.0000000000000       0.000000000000000E+000
  -15.0000000000000       -10.0000000000000       0.000000000000000E+000
  -10.0000000000000       -10.0000000000000       0.000000000000000E+000
  -5.00000000000000       -10.0000000000000       0.000000000000000E+000
  -55.0000000000000        10.0000000000000       0.000000000000000E+000
  -60.0000000000000        10.0000000000000       0.000000000000000E+000
  -65.0000000000000        10.0000000000000       0.000000000000000E+000
  -70.0000000000000        10.0000000000000       0.000000000000000E+000
[...]
 CELL_DATA        2884
 POINT_DATA        4085
 FIELD Result            2
 Displacement_Load_Case01            3        4085 double
 -3.683713787692330E-002  2.664293658354229E-004 -0.106656978341908     
 -3.683707989471194E-002 -2.660393347138265E-004 -0.106656942235683     
 -8.764182161863898E-003  1.089374219181298E-003 -0.159665852203854     
 -8.764359307319083E-003 -1.088148589622092E-003 -0.159665900289281     
  1.224482065037195E-002  3.974980514650394E-004 -0.117399547912071     
  1.224478542802978E-002 -3.955043026520481E-004 -0.117399588033292     
  4.098371454669274E-003 -2.453075001891429E-004 -6.149929717045341E-002
  4.098549940357447E-003  2.471771891650736E-004 -6.149938346677892E-002
  1.158525321259664E-007 -7.267365252538623E-004 -6.650474735834783E-003
  2.490016865397289E-007  7.264829096219570E-004 -6.650446892175866E-003
 -4.114515164267850E-003 -2.755296479310025E-004 -6.150915463427357E-002
 -4.099135388194941E-003  2.177676412969268E-004 -6.151293936716250E-002
 -1.226748570917773E-002  3.336271493161849E-004 -0.117464618313049     
 -1.226330594444778E-002 -4.600909757431751E-004 -0.117469756555601     
  8.762915616502708E-003  9.989417983775183E-004 -0.159866683099937     
  8.773016686429377E-003 -1.181040775965620E-003 -0.159872960071818     
  3.681572000644692E-002 -3.599734374442520E-004 -0.107066835370229     
  3.680714123565857E-002  1.527508894491857E-004 -0.107091347209301     
  2.626971669202111E-004 -5.553390898164355E-004 -3.422840859821078E-004
  2.470598205186495E-004  3.759833874549170E-004 -3.714931003348743E-004
 -1.300585251446575E-004  1.968678207163306E-004 -1.687351709869724E-004
 -1.300570166153200E-004 -1.968700960155748E-004 -1.687311339885994E-004
 -2.467530686116724E-002  1.338046159762968E-004 -0.279558141829436     
 -2.368956319965217E-002  1.936901900886773E-007 -0.376712765037691     
 -2.467526162805776E-002 -1.334165716607702E-004 -0.279558193608361     
 -2.813329526904276E-002 -1.127292610644306E-003  -4.48738514046067     
 -2.437261333883546E-002 -2.006127258045790E-005  -14.7103711273385     
 -2.220662370100028E-002  7.758257234311448E-004  -25.6660850715519     
 -2.038926508413301E-002  1.085298387062236E-003  -33.7039533680474     
 -1.856877498618624E-002  1.159186911585933E-003  -36.6332526380898     
 -1.670217298891408E-002  1.158438716296297E-003  -33.7228960883872     
 -1.480879070541945E-002  1.138640446814962E-003  -25.7018748680059     
 -1.289364449323358E-002  1.104409405442533E-003  -14.7588818882047     
 -1.091887926411017E-002  1.061828833931746E-003  -4.54230014477650     
 -9.205678528555460E-003  5.454290486279354E-004 -0.459604051935261     
 -9.241398677559326E-003  6.129990327368198E-007 -0.626810395457240     
 -9.205770271021246E-003 -5.442031437934316E-004 -0.459603939293601     
 -1.091906477298347E-002 -1.060700364114359E-003  -4.54230019086841     
 -1.289383218155784E-002 -1.103380486997041E-003  -14.7588819336871     
 -1.480897645698800E-002 -1.137710832478994E-003  -25.7018749119515     
 -1.670235314748310E-002 -1.157606428075155E-003  -33.7228961314886     
 -1.856894589592806E-002 -1.158448241818296E-003  -36.6332526798417     
 -2.038942308902228E-002 -1.084647796223680E-003  -33.7039534087793     
 -2.220676516217608E-002 -7.752558358995577E-004  -25.6660851111046     
 -2.437273461445212E-002  2.055930647907624E-005  -14.7103711657064     
 -2.813339111486458E-002  1.127729120576631E-003  -4.48738517779445     
 -7.274475147443680E-003  1.124056054944990E-003  -4.53625443388408     
 -5.605865157085444E-003  1.085311673008439E-003  -14.7511150578134     
 -3.880134826671558E-003  1.059028369209123E-003  -25.6956715288895     
 -2.145863432522765E-003  1.051789341445649E-003  -33.7206160540681     
 -4.240074680329486E-004  1.048280398000833E-003  -36.6361347963063     
  1.274266329809510E-003  1.014506360509113E-003  -33.7123236154472     
  2.969665080257790E-003  8.737204596252627E-004  -25.6790426986948     
  4.823713707543534E-003  5.106188056584387E-004  -14.7260924321610     
  7.405741697734529E-003  5.082348359721896E-006  -4.50268660893404     
  6.691991674391207E-003  1.991630657273286E-004 -0.504524150636765     
  6.241903224514418E-003  9.996632953682195E-007 -0.719061518795943     
  6.691963315925221E-003 -1.971651259210420E-004 -0.504523971933658     
  7.405669177157586E-003 -3.122642760560731E-006  -4.50268664849524     
  4.823613668329518E-003 -5.087090359128200E-004  -14.7260924735280     
  2.969542277533340E-003 -8.718724340113895E-004  -25.6790427401894     
  1.274124388964090E-003 -1.012730321794983E-003  -33.7123236584151     
 -4.241649272256357E-004 -1.046585018675751E-003  -36.6361348396571     
 -2.146032778613157E-003 -1.050181473530836E-003  -33.7206160986596     
 -3.880312429960966E-003 -1.057513045800103E-003  -25.6956715740860     
 -5.606047386489106E-003 -1.083892210227656E-003  -14.7511151040430     
 -7.274657911005059E-003 -1.122734052672302E-003  -4.53625448088127     
  8.725152030477990E-003  7.888223916523952E-004  -4.49291199626798     
  7.462707198441868E-003  2.830308633855198E-004  -14.7060771811191     
  6.928284940927314E-003 -8.034303777090579E-005  -25.6484967759232     
  6.552824507049923E-003 -2.214827422763833E-004  -33.6711714060305     
  6.175498653475592E-003 -2.552072643576512E-004  -36.5844349985410     
  5.776399568087453E-003 -2.559140337293993E-004  -33.6586422752214     
  5.364989072162387E-003 -2.513725998816114E-004  -25.6237746997931     
  4.948686367901647E-003 -2.474083650579408E-004  -14.6698476747937     
  4.528426431969531E-003 -2.443037237039435E-004  -4.44617256788451     
  4.122351603430169E-003 -1.222436391071899E-004 -0.499568931738104     
  4.124246459545356E-003  9.431940872543617E-007 -0.741496232542136     
  4.122445507359580E-003  1.241259427584840E-004 -0.499568723801548     
  4.528566591356043E-003  2.462496037906683E-004  -4.44617264742846     
  4.948790900042930E-003  2.494093840606250E-004  -14.6698477513466     
  5.365061707476543E-003  2.534118448281579E-004  -25.6237747705564     
  5.776444162336292E-003  2.579764742242096E-004  -33.6586423425386     
  6.175519025604219E-003  2.572798474420727E-004  -36.5844350604090     
  6.552824471010411E-003  2.235543106532377E-004  -33.6711714641486     
  6.928268296989972E-003  8.240434822754895E-005  -25.6484968288757     
  7.462677746368572E-003 -2.809873996656015E-004  -14.7060772300640     
  8.725114693533485E-003 -7.868026971432203E-004  -4.49291204022790     
  3.704743686327866E-003 -2.476490620721953E-004  -4.43742331809124     
  3.301541475941043E-003 -2.456496834263423E-004  -14.6501801228377     
  2.895300034136919E-003 -2.441065911074912E-004  -25.5916474519744     
  2.488460304950406E-003 -2.430932686122725E-004  -33.6131447670938     
  2.081259510470949E-003 -2.415090817819153E-004  -36.5252667770127     
  1.671731139936898E-003 -2.386825518738780E-004  -33.5986614033159     
  1.254385640842614E-003 -2.372203172020239E-004  -25.5635590034341     
  8.208312298724090E-004 -2.565045181090848E-004  -14.6102467168594     
  3.771289354511600E-004 -3.205946076289953E-004  -4.38827593242130     
 -2.101833394920233E-006 -2.957030823087259E-004 -0.461531818107718     
 -1.622680558639329E-006 -1.515445220431072E-007 -0.712441931456469     
 -8.728461480907285E-007  2.954001559217279E-004 -0.461531518498761     
  3.778411821188278E-004  3.203609577998554E-004  -4.38827591206983     
  8.215661147374952E-004  2.567273996737367E-004  -14.6102467111111     
  1.255032002242385E-003  2.378000772152679E-004  -25.5635590067485     
  1.672291317053143E-003  2.395546521910222E-004  -33.5986614203837     
  2.081741124493209E-003  2.426318368680722E-004  -36.5252668038199     
  2.488869643833953E-003  2.444291941331950E-004  -33.6131448070402     
  2.895643052139096E-003  2.456211125913114E-004  -25.5916475022364     
  3.301824079108766E-003  2.473111381959743E-004  -14.6501801857080     
  3.704971585623500E-003  2.494288554422166E-004  -4.43742339169228     
 -3.814196453493733E-004 -3.212927837343851E-004  -4.38827289477469     
 -8.275552421872947E-004 -2.592118297304079E-004  -14.6102433098468     
 -1.262860004936558E-003 -2.423556333150658E-004  -25.5635572188347     
 -1.681723789029884E-003 -2.465715771786612E-004  -33.5986625105128     
 -2.092635626088481E-003 -2.525019774937814E-004  -36.5252714261460     
 -2.501096127763485E-003 -2.575165981940483E-004  -33.6131528906831     
 -2.909065136968157E-003 -2.622372666937269E-004  -25.5916584430105     
 -3.316295288737175E-003 -2.677045598068881E-004  -14.6501926837925     
 -3.720317815635853E-003 -2.737750404486288E-004  -4.43743571462800     
 -4.134789579269891E-003 -1.522454840453501E-004 -0.499752769997920     
 -4.132803685072101E-003 -2.884920176840208E-005 -0.741732233070656     
 -4.127093201382592E-003  9.453100494853390E-005 -0.499754373067888     
 -3.705030804559262E-003  2.241452884234463E-004  -4.43743911850684     
 -3.301463609257792E-003  2.260679734991938E-004  -14.6501957053484     
 -2.894985441962875E-003  2.282819150659421E-004  -25.5916610830156     
 -2.488050163939056E-003  2.307930128866962E-004  -33.6131551496406     
 -2.080905065166238E-003  2.324228751425008E-004  -36.5252733021577     
 -1.671590114710801E-003  2.324089176624496E-004  -33.5986640069118     
 -1.254603556152607E-003  2.332385460510281E-004  -25.5635583308157     
 -8.214515549033290E-004  2.541569830742276E-004  -14.6102440437547     
 -3.778478160805312E-004  3.191914464376295E-004  -4.38827324254033     
 -4.545555932173484E-003 -2.786866165288724E-004  -4.44618150480417     
 -4.966546421527157E-003 -2.860117350888471E-004  -14.6698600902422     
 -5.383406943670635E-003 -2.941449390973727E-004  -25.6237938827676     
 -5.795224041227528E-003 -3.027324534604197E-004  -33.6586701225066     
 -6.194573518433217E-003 -3.058758489976635E-004  -36.5844724794226     
 -6.571982548390135E-003 -2.757024727717201E-004  -33.6712182222837     
 -6.947384609537891E-003 -1.376523412870478E-004  -25.6485519159966     
 -7.481807007284694E-003  2.232872565309922E-004  -14.7061385226971     
 -8.744933603594138E-003  7.272515011457408E-004  -4.49297695367649     
 -6.707599521228687E-003  1.350847666044880E-004 -0.504942885606185     
 -6.255024824453337E-003 -6.327008245541096E-005 -0.719575216879524     
 -6.703718981238617E-003 -2.616057859496070E-004 -0.504945185408040     
 -8.737363168370231E-003 -8.500915264682150E-004  -4.49298195323314     
 -7.472066586491213E-003 -3.411942672902508E-004  -14.7061433894348     
 -6.935928839453692E-003  2.553512823264174E-005  -25.6485566453457     
 -6.559095246392652E-003  1.701263307794762E-004  -33.6712228182991     
 -6.180538150942238E-003  2.074871327586543E-004  -36.5844769383848     
 -5.780326014539362E-003  2.120339962962129E-004  -33.6586744478596     
 -5.367932041721677E-003  2.114966125503772E-004  -25.6237980713060     
 -4.950780373443745E-003  2.116336342066278E-004  -14.6698641449820     
 -4.529799228182813E-003  2.126589959091807E-004  -4.44618542278090     
 -7.423995460878583E-003 -6.098935872076049E-005  -4.50275491703477     
 -4.839762998326487E-003  4.429347092075273E-004  -14.7261713963832     
 -2.984191338856702E-003  8.039533753319385E-004  -25.6791377716039     
 -1.287327181304820E-003  9.421386655508005E-004  -33.7124377859040     
  4.125547068459213E-004  9.729897727720258E-004  -36.6362694670654     
  2.136187737669901E-003  9.734186871580260E-004  -33.7207704889563     
  3.872392087649480E-003  9.775308352856019E-004  -25.6958438409662     
  5.600190561351012E-003  1.000723852206704E-003  -14.7513016040680     
  7.270974713760868E-003  1.036476452592090E-003  -4.53645092119793     
  9.207196923651309E-003  4.543021862138674E-004 -0.460351585804505     
  9.245503634781323E-003 -9.115373326553998E-005 -0.627673233509969     
  9.212398052823177E-003 -6.365583833306841E-004 -0.460354516320196     
  7.282047478410845E-003 -1.212812766321327E-003  -4.53645707733368     
  5.611799674419041E-003 -1.170909956832609E-003  -14.7513076521682     
  3.884224692179166E-003 -1.141396257498624E-003  -25.6958497705484     
  2.147959287932407E-003 -1.130928492347443E-003  -33.7207763092656     
  4.239810560207670E-004 -1.124245520346133E-003  -36.6362751698189     
 -1.276529961290511E-003 -1.087384068513940E-003  -33.7124433785342     
 -2.974305276631249E-003 -9.435749378559194E-004  -25.6791432474523     
 -4.831070524356171E-003 -5.774231876423700E-004  -14.7261767614234     
 -7.416949873758732E-003 -6.896150020640290E-005  -4.50276016578077     
  1.092002845101485E-002  9.686350082416893E-004  -4.54251050318705     
  1.289728346106547E-002  1.008637852379712E-003  -14.7591145772268     
  1.481504404086498E-002  1.040476799901809E-003  -25.7021386049312     
  1.671123376523959E-002  1.058134674303183E-003  -33.7231948471108     
  1.858095149505439E-002  1.057154518509223E-003  -36.6335870270339     
  2.040499043009336E-002  9.823892682529569E-004  -33.7043199766088     
  2.222607778493683E-002  6.739238152118823E-004  -25.6664779481087     
  2.439392486891161E-002 -1.175331322681867E-004  -14.7107811386306     
  2.814740392987816E-002 -1.217865065105531E-003  -4.48780155965795     
  2.472181560632407E-002 -2.325540142378570E-004 -0.280734766620084     
  2.374069631881159E-002 -1.038962493972781E-004 -0.377981402491552     
  2.471949736477784E-002  2.489605138180302E-005 -0.280746943628256     
  2.814316863240560E-002  1.007969377480218E-003  -4.48782426681307     
  2.439269682642121E-002 -9.306802490194415E-005  -14.7108020035343     
  2.222735597467028E-002 -8.839878303760773E-004  -25.6664969986674     
  2.040846937158397E-002 -1.190778208152947E-003  -33.7043371942495     
  1.858632941381429E-002 -1.262842759993808E-003  -36.6336024211776     
  1.671820669368218E-002 -1.260248474112775E-003  -33.7232084173970     
  1.482330772205338E-002 -1.238294917419909E-003  -25.7021503426680     
  1.290653393252094E-002 -1.201584993070646E-003  -14.7591245002556     
  1.092993413489798E-002 -1.156282635667205E-003  -4.54251858418780     
  2.727995722595557E-002  4.911623012759169E-004  -4.48608960572035     
  2.266007895864751E-002 -6.096212355150306E-004  -14.6949781186379     
  1.962540102133330E-002 -1.400556090347123E-003  -25.6277085130884     
  1.693689422597782E-002 -1.708794000202988E-003  -33.6369517199913     
  1.424622678491890E-002 -1.785890858074420E-003  -36.5356413317788     
  1.151668257874060E-002 -1.793393925991832E-003  -33.5958935564092     
  8.784002693050779E-003 -1.779039112986304E-003  -25.5505449324371     
  6.080447590179826E-003 -1.697255210685212E-003  -14.5914817631503     
  3.360284768799844E-003 -1.435812876297376E-003  -4.37116319087899     
  6.158687767199435E-004 -2.393273831114002E-004 -2.090392916604351E-003
  7.197226026244346E-004 -8.971283390317627E-005 -2.026437978433618E-003
  6.080272459179664E-004  5.991507730853118E-005 -2.105032860233874E-003
  3.347797859440272E-003  1.250792542408752E-003  -4.37119194081247     
  6.070504682692280E-003  1.507407527830356E-003  -14.5915100330607     
  8.776121169969989E-003  1.585523748070440E-003  -25.5505727409088     
  1.151037907394217E-002  1.597116540152954E-003  -33.5959208870275     
  1.424100915464522E-002  1.587519757386231E-003  -36.5356681989592     
  1.693227091993662E-002  1.508748945153720E-003  -33.6369781111641     
  1.962088263667161E-002  1.199009358685936E-003  -25.6277344391170     
  2.265517898746357E-002  4.065446165725605E-004  -14.6950035702375     
  2.727400009130969E-002 -6.960062568371261E-004  -4.48611459072544     
 -2.723337650766271E-002 -5.888706336400864E-004  -4.48569080515317     
 -2.257351109479796E-002  5.191460954925187E-004  -14.6945933939039     
 -1.950771731354113E-002  1.315403973003990E-003  -25.6273415584394     
 -1.678963208926090E-002  1.626325414342590E-003  -33.6366074962068     
 -1.406880573732615E-002  1.705726810362863E-003  -36.5353240484392     
 -1.130919985472119E-002  1.717722064116177E-003  -33.5956072367278     
 -8.551172482324104E-003  1.712039134508529E-003  -25.5502912296395     
 -5.839767172039935E-003  1.635688996178608E-003  -14.5912604717421     
 -3.150203412727315E-003  1.356158828405606E-003  -4.37096988311309     
 -2.691541593573737E-004  6.682228253913717E-005 -8.973933214492209E-004
 -3.132959700461700E-004 -8.429850437131712E-010 -8.656852249159354E-004
 -2.691535216192187E-004 -6.682414334036918E-005 -8.973924721492446E-004
 -3.150178111997037E-003 -1.356143469910984E-003  -4.37096987553206     
 -5.839722563649083E-003 -1.635650438666418E-003  -14.5912604613095     
 -8.551112085384191E-003 -1.711968508543346E-003  -25.5502912158267     
 -1.130912722430545E-002 -1.717612395593735E-003  -33.5956072199041     
 -1.406872450662649E-002 -1.705572870088906E-003  -36.5353240283915     
 -1.678954588624791E-002 -1.626123812389177E-003  -33.6366074729939     
 -1.950762974782727E-002 -1.315153138844482E-003  -25.6273415321565     
 -2.257342577974280E-002 -5.188459188889262E-004  -14.6945933642976     
 -2.723329866006155E-002  5.892187994689054E-004  -4.48569077265729     
 -2.568351205396394E-002  1.487338354967630E-003  -4.67232416075516     
 -2.385368096088759E-002  2.165439599051788E-007  -4.77629493186917     
 -2.568346359097907E-002 -1.486906409794091E-003  -4.67232421811197     
 -2.428792262698212E-002  3.924818112004968E-004  -14.9063992108849     
 -2.380852106668033E-002  2.459521403041771E-007  -15.0183098701658     
 -2.428786413234400E-002 -3.919883954546463E-004  -14.9063992739964     
 -2.246550511963099E-002 -2.913145953116230E-004  -25.8729237247012     
 -2.245141221442956E-002  2.821710786231752E-007  -25.9932200426501     
 -2.246543654828469E-002  2.918803137155359E-004  -25.8729237936164     
 -2.054799009531214E-002 -5.380996194111564E-004  -33.9221916578326     
 -2.060428242266608E-002  3.230780698099048E-007  -34.0504410506694     
 -2.054791320630892E-002  5.387468922195852E-004  -33.9221917326171     
 -1.862432996209261E-002 -5.895529930288126E-004  -36.8636550424312     
 -1.865759125272819E-002  3.676726298708275E-007  -36.9993448176281     
 -1.862424661280715E-002  5.902891691448421E-004  -36.8636551233374     
 -1.670870898934423E-002 -5.848656124123981E-004  -33.9665525261791     
 -1.671901880682836E-002  4.150335397784954E-007  -34.1087234609690     
 -1.670862101797138E-002  5.856962325638636E-004  -33.9665526130863     
 -1.479886540105558E-002 -5.675104689628731E-004  -25.9595594931958     
 -1.480186444838928E-002  4.642476925093446E-007  -26.1077626140828     
 -1.479877464646796E-002  5.684392469896684E-004  -25.9595595865811     
 -1.289456421508831E-002 -5.380958244898732E-004  -15.0311541242879     
 -1.291162751922480E-002  5.143754035204413E-007  -15.1849174935606     
 -1.289447248797147E-002  5.391246227140012E-004  -15.0311542238275     
 -1.100617583543002E-002 -4.961434701944079E-004  -4.82891047338355     
 -1.107225807175045E-002  5.641533433248311E-007  -4.98887215946593     
 -1.100608442870392E-002  4.972723934082756E-004  -4.82891057982221     
 -7.364735926479416E-003 -5.941819314849286E-004  -4.84432718383159     
 -7.431194899003926E-003  6.614916263501159E-007  -5.01575546127647     
 -7.364645871809043E-003  5.955040988837806E-004  -4.84432730248603     
 -5.610324704280413E-003 -5.557151653465077E-004  -15.0662961696622     
 -5.627899413759211E-003  7.102214342506403E-007  -15.2429715766889     
 -5.610235690314172E-003  5.571353561723575E-004  -15.0662962941327     
 -3.871247455514087E-003 -5.329711580970771E-004  -26.0177294900375     
 -3.870594393749128E-003  7.586228995710039E-007  -26.2003953896425     
 -3.871160760077119E-003  5.344879204964525E-004  -26.0177296208626     
 -2.134670693078799E-003 -5.277856979371594E-004  -34.0500744054030     