# vtk DataFile Version 3.0
 Bridge                                                                         
  
ASCII
DATASET UNSTRUCTURED_GRID
 POINTS        4085 double
   200.000000000000       -10.0000000000000       0.000000000000000E+000
   200.000000000000        10.0000000000000       0.000000000000000E+000
   150.000000000000        10.0000000000000       0.000000000000000E+000
   150.000000000000       -10.0000000000000       0.000000000000000E+000
   100.000000000000        10.0000000000000       0.000000000000000E+000
   100.000000000000       -10.0000000000000       0.000000000000000E+000
   50.0000000000000        10.0000000000000       0.000000000000000E+000
   50.0000000000000       -10.0000000000000       0.000000000000000E+000
  0.000000000000000E+000   10.0000000000000       0.000000000000000E+000
  0.000000000000000E+000  -10.0000000000000       0.000000000000000E+000
  -50.0000000000000        10.0000000000000       0.000000000000000E+000
  -50.0000000000000       -10.0000000000000       0.000000000000000E+000
  -100.000000000000        10.0000000000000       0.000000000000000E+000
  -100.000000000000       -10.0000000000000       0.000000000000000E+000
  -150.000000000000        10.0000000000000       0.000000000000000E+000
  -150.000000000000       -10.0000000000000       0.000000000000000E+000
  -200.000000000000        10.0000000000000       0.000000000000000E+000
  -200.000000000000       -10.0000000000000       0.000000000000000E+000
  -250.000000000000        10.0000000000000       0.000000000000000E+000
  -250.000000000000       -10.0000000000000       0.000000000000000E+000
   250.000000000000       -10.0000000000000       0.000000000000000E+000
   250.000000000000        10.0000000000000       0.000000000000000E+000
   200.000000000000       -5.00000000000000       0.000000000000000E+000
   200.000000000000       0.000000000000000E+000  0.000000000000000E+000
   200.000000000000        5.00000000000000       0.000000000000000E+000
   195.000000000000        10.0000000000000       0.000000000000000E+000
   190.000000000000        10.0000000000000       0.000000000000000E+000
   185.000000000000        10.0000000000000       0.000000000000000E+000
   180.000000000000        10.0000000000000       0.000000000000000E+000
   175.000000000000        10.0000000000000       0.000000000000000E+000
   170.000000000000        10.0000000000000       0.000000000000000E+000
   165.000000000000        10.0000000000000       0.000000000000000E+000
   160.000000000000        10.0000000000000       0.000000000000000E+000
   155.000000000000        10.0000000000000       0.000000000000000E+000
   150.000000000000        5.00000000000000       0.000000000000000E+000
   150.000000000000       0.000000000000000E+000  0.000000000000000E+000
   150.000000000000       -5.00000000000000       0.000000000000000E+000
   155.000000000000       -10.0000000000000       0.000000000000000E+000
   160.000000000000       -10.0000000000000       0.000000000000000E+000
   165.000000000000       -10.0000000000000       0.000000000000000E+000
   170.000000000000       -10.0000000000000       0.000000000000000E+000
   175.000000000000       -10.0000000000000       0.000000000000000E+000
   180.000000000000       -10.0000000000000       0.000000000000000E+000
   185.000000000000       -10.0000000000000       0.000000000000000E+000
   190.000000000000       -10.0000000000000       0.000000000000000E+000
   195.000000000000       -10.0000000000000       0.000000000000000E+000
   145.000000000000        10.0000000000000       0.000000000000000E+000
   140.000000000000        10.0000000000000       0.000000000000000E+000
   135.000000000000        10.0000000000000       0.000000000000000E+000
   130.000000000000        10.0000000000000       0.000000000000000E+000
   125.000000000000        10.0000000000000       0.000000000000000E+000
   120.000000000000        10.0000000000000       0.000000000000000E+000
   115.000000000000        10.0000000000000       0.000000000000000E+000
   110.000000000000        10.0000000000000       0.000000000000000E+000
   105.000000000000        10.0000000000000       0.000000000000000E+000
   100.000000000000        5.00000000000000       0.000000000000000E+000
   100.000000000000       0.000000000000000E+000  0.000000000000000E+000
   100.000000000000       -5.00000000000000       0.000000000000000E+000
   105.000000000000       -10.0000000000000       0.000000000000000E+000
   110.000000000000       -10.0000000000000       0.000000000000000E+000
   115.000000000000       -10.0000000000000       0.000000000000000E+000
   120.000000000000       -10.0000000000000       0.000000000000000E+000
   125.000000000000       -10.0000000000000       0.000000000000000E+000
   130.000000000000       -10.0000000000000       0.000000000000000E+000
   135.000000000000       -10.0000000000000       0.000000000000000E+000
   140.000000000000       -10.0000000000000       0.000000000000000E+000
   145.000000000000       -10.0000000000000       0.000000000000000E+000
   95.0000000000000        10.0000000000000       0.000000000000000E+000
   90.0000000000000        10.0000000000000       0.000000000000000E+000
   85.0000000000000        10.0000000000000       0.000000000000000E+000
   80.0000000000000        10.0000000000000       0.000000000000000E+000
   75.0000000000000        10.0000000000000       0.000000000000000E+000
   70.0000000000000        10.0000000000000       0.000000000000000E+000
   65.0000000000000        10.0000000000000       0.000000000000000E+000
   60.0000000000000        10.0000000000000       0.000000000000000E+000
   55.0000000000000        10.0000000000000       0.000000000000000E+000
   50.0000000000000        5.00000000000000       0.000000000000000E+000
   50.0000000000000       0.000000000000000E+000  0.000000000000000E+000
   50.0000000000000       -5.00000000000000       0.000000000000000E+000
   55.0000000000000       -10.0000000000000       0.000000000000000E+000
   60.0000000000000       -10.0000000000000       0.000000000000000E+000
   65.0000000000000       -10.0000000000000       0.000000000000000E+000
   70.0000000000000       -10.0000000000000       0.000000000000000E+000
   75.0000000000000       -10.0000000000000       0.000000000000000E+000
   80.0000000000000       -10.0000000000000       0.000000000000000E+000
   85.0000000000000       -10.0000000000000       0.000000000000000E+000
   90.0000000000000       -10.0000000000000       0.000000000000000E+000
   95.0000000000000       -10.0000000000000       0.000000000000000E+000
   45.0000000000000        10.0000000000000       0.000000000000000E+000
   40.0000000000000        10.0000000000000       0.000000000000000E+000
   35.0000000000000        10.0000000000000       0.000000000000000E+000
   30.0000000000000        10.0000000000000       0.000000000000000E+000
   25.0000000000000        10.0000000000000       0.000000000000000E+000
   20.0000000000000        10.0000000000000       0.000000000000000E+000
   15.0000000000000        10.0000000000000       0.000000000000000E+000
   10.0000000000000        10.0000000000000       0.000000000000000E+000
   5.00000000000000        10.0000000000000       0.000000000000000E+000
  0.000000000000000E+000   5.00000000000000       0.000000000000000E+000
  0.000000000000000E+000  0.000000000000000E+000  0.000000000000000E+000
  0.000000000000000E+000  -5.00000000000000       0.000000000000000E+000
   5.00000000000000       -10.0000000000000       0.000000000000000E+000
   10.0000000000000       -10.0000000000000       0.000000000000000E+000
   15.0000000000000       -10.0000000000000       0.000000000000000E+000
   20.0000000000000       -10.0000000000000       0.000000000000000E+000
   25.0000000000000       -10.0000000000000       0.000000000000000E+000
   30.0000000000000       -10.0000000000000       0.000000000000000E+000
   35.0000000000000       -10.0000000000000       0.000000000000000E+000
   40.0000000000000       -10.0000000000000       0.000000000000000E+000
   45.0000000000000       -10.0000000000000       0.000000000000000E+000
  -5.00000000000000        10.0000000000000       0.000000000000000E+000
  -10.0000000000000        10.0000000000000       0.000000000000000E+000
  -15.0000000000000        10.0000000000000       0.000000000000000E+000
  -20.0000000000000        10.0000000000000       0.000000000000000E+000
  -25.0000000000000        10.0000000000000       0.000000000000000E+000
  -30.0000000000000        10.0000000000000       0.000000000000000E+000
  -35.0000000000000        10.0000000000000       0.000000000000000E+000
  -40.0000000000000        10.0000000000000       0.000000000000000E+000
  -45.0000000000000        10.0000000000000       0.000000000000000E+000
  -50.0000000000000        5.00000000000000       0.000000000000000E+000
  -50.0000000000000       0.000000000000000E+000  0.000000000000000E+000
  -50.0000000000000       -5.00000000000000       0.000000000000000E+000
  -45.0000000000000       -10.0000000000000       0.000000000000000E+000
  -40.0000000000000       -10.0000000000000       0.000000000000000E+000
  -35.0000000000000       -10.0000000000000       0.000000000000000E+000
  -30.0000000000000       -10.0000000000000       0.000000000000000E+000
  -25.0000000000000       -10.0000000000000       0.000000000000000E+000
  -20.0000000000000       -10.0000000000000       0.000000000000000E+000
  -15.0000000000000       -10.0000000000000       0.000000000000000E+000
  -10.0000000000000       -10.0000000000000       0.000000000000000E+000
  -5.00000000000000       -10.0000000000000       0.000000000000000E+000
  -55.0000000000000        10.0000000000000       0.000000000000000E+000
  -60.0000000000000        10.0000000000000       0.000000000000000E+000
  -65.0000000000000        10.0000000000000       0.000000000000000E+000
  -70.0000000000000        10.0000000000000       0.000000000000000E+000
[...]
 CELL_DATA        2884
 POINT_DATA        4085
 FIELD Result            2
 Displacement_Load_Case01            3        4085 double
 -3.683713787653124E-002  2.664293653873094E-004 -0.106656978340843     
 -3.683707989470428E-002 -2.660393351624304E-004 -0.106656942235748     
 -8.764182161890571E-003  1.089374218222835E-003 -0.159665852203552     
 -8.764359307311377E-003 -1.088148590562001E-003 -0.159665900287617     
  1.224482065034970E-002  3.974980508617424E-004 -0.117399547911885     
  1.224478542763426E-002 -3.955043032505816E-004 -0.117399588032788     
  4.098371454631957E-003 -2.453075002657682E-004 -6.149929717028856E-002
  4.098549940218224E-003  2.471771890796441E-004 -6.149938346706644E-002
  1.158525365725267E-007 -7.267365252409133E-004 -6.650474735828632E-003
  2.490016969816613E-007  7.264829096412989E-004 -6.650446892181697E-003
 -4.114515164356473E-003 -2.755296479832793E-004 -6.150915463330341E-002
 -4.099135388282432E-003  2.177676412535823E-004 -6.151293936622322E-002
 -1.226748570926579E-002  3.336271494467551E-004 -0.117464618311544     
 -1.226330594475272E-002 -4.600909756123181E-004 -0.117469756555159     
  8.762915616399520E-003  9.989417986621802E-004 -0.159866683099401     
  8.773016686350037E-003 -1.181040775688802E-003 -0.159872960071963     
  3.681572000638515E-002 -3.599734373150743E-004 -0.107066835370515     
  3.680714123565289E-002  1.527508895727029E-004 -0.107091347209144     
  2.626971669214719E-004 -5.553390898134929E-004 -3.422840859872814E-004
  2.470598205213448E-004  3.759833874541384E-004 -3.714931003424211E-004
 -1.300585251456033E-004  1.968678207165917E-004 -1.687351709899980E-004
 -1.300570166171574E-004 -1.968700960138994E-004 -1.687311339923524E-004
 -2.467530686096471E-002  1.338046155280981E-004 -0.279558141827311     
 -2.368956319953624E-002  1.936897417980734E-007 -0.376712765035628     
 -2.467526162801582E-002 -1.334165721092056E-004 -0.279558193607931     
 -2.813329526906877E-002 -1.127292611175698E-003  -4.48738514000900     
 -2.437261333887110E-002 -2.006127319690917E-005  -14.7103711262790     
 -2.220662370103670E-002  7.758257227391663E-004  -25.6660850698810     
 -2.038926508416793E-002  1.085298386305715E-003  -33.7039533659367     
 -1.856877498621963E-002  1.159186910774580E-003  -36.6332526358819     
 -1.670217298894618E-002  1.158438715438788E-003  -33.7228960864366     
 -1.480879070545041E-002  1.138640445919599E-003  -25.7018748665577     
 -1.289364449326337E-002  1.104409404517541E-003  -14.7588818873578     
 -1.091887926413863E-002  1.061828832985345E-003  -4.54230014446478     
 -9.205678528574382E-003  5.454290476695176E-004 -0.459604051933702     
 -9.241398677569344E-003  6.129980774738996E-007 -0.626810395454331     
 -9.205770271022278E-003 -5.442031447425639E-004 -0.459603939291139     
 -1.091906477294367E-002 -1.060700365042071E-003  -4.54230019055484     
 -1.289383218148599E-002 -1.103380487903403E-003  -14.7588819328379     
 -1.480897645688418E-002 -1.137710833355723E-003  -25.7018749105005     
 -1.670235314734741E-002 -1.157606428913946E-003  -33.7228961295347     
 -1.856894589576071E-002 -1.158448242610961E-003  -36.6332526776305     
 -2.038942308882364E-002 -1.084647796962452E-003  -33.7039534066659     
 -2.220676516194622E-002 -7.752558365777361E-004  -25.6660851094314     
 -2.437273461418888E-002  2.055930586626819E-005  -14.7103711646451     
 -2.813339111455646E-002  1.127729120034749E-003  -4.48738517734130     
 -7.274475147470869E-003  1.124056053979620E-003  -4.53625443398490     
 -5.605865157111803E-003  1.085311672044966E-003  -14.7511150579120     
 -3.880134826696202E-003  1.059028368256017E-003  -25.6956715289160     
 -2.145863432544866E-003  1.051789340511789E-003  -33.7206160540119     
 -4.240074680515885E-004  1.048280397095525E-003  -36.6361347962102     
  1.274266329795344E-003  1.014506359642356E-003  -33.7123236153300     
  2.969665080248878E-003  8.737204588082553E-004  -25.6790426985582     
  4.823713707538921E-003  5.106188049036662E-004  -14.7260924320471     
  7.405741697728659E-003  5.082347678854586E-006  -4.50268660888117     
  6.691991674318352E-003  1.991630651244388E-004 -0.504524150634913     
  6.241903224370462E-003  9.996626934101933E-007 -0.719061518794599     
  6.691963315700428E-003 -1.971651265215483E-004 -0.504523971933573     
  7.405669176844049E-003 -3.122643445135351E-006  -4.50268664844231     
  4.823613668064258E-003 -5.087090366603590E-004  -14.7260924734140     
  2.969542277306165E-003 -8.718724348133022E-004  -25.6790427400528     
  1.274124388772514E-003 -1.012730322643591E-003  -33.7123236582974     
 -4.241649273823534E-004 -1.046585019562180E-003  -36.6361348395607     
 -2.146032778735562E-003 -1.050181474445805E-003  -33.7206160986030     
 -3.880312430049708E-003 -1.057513046734429E-003  -25.6956715741120     
 -5.606047386544894E-003 -1.083892211172468E-003  -14.7511151041410     
 -7.274657911028630E-003 -1.122734053619125E-003  -4.53625448098096     
  8.725152030470985E-003  7.888223911283195E-004  -4.49291199629422     
  7.462707198435007E-003  2.830308629404478E-004  -14.7060771811258     
  6.928284940915053E-003 -8.034303814522348E-005  -25.6484967758157     
  6.552824507031318E-003 -2.214827425890059E-004  -33.6711714056941     
  6.175498653451434E-003 -2.552072646163451E-004  -36.5844349979233     
  5.776399568058766E-003 -2.559140339407287E-004  -33.6586422743936     
  5.364989072130100E-003 -2.513726000514583E-004  -25.6237746989330     
  4.948686367866637E-003 -2.474083651917488E-004  -14.6698476741222     
  4.528426431932746E-003 -2.443037238067201E-004  -4.44617256755049     
  4.122351603366664E-003 -1.222436391837091E-004 -0.499568931735289     
  4.124246459455500E-003  9.431940092771014E-007 -0.741496232540408     
  4.122445507243611E-003  1.241259426775562E-004 -0.499568723802347     
  4.528566591199301E-003  2.462496036792437E-004  -4.44617264709473     
  4.948790899868626E-003  2.494093839178757E-004  -14.6698477506753     
  5.365061707284131E-003  2.534118446491242E-004  -25.6237747696962     
  5.776444162125071E-003  2.579764740035349E-004  -33.6586423417104     
  6.175519025373521E-003  2.572798471740375E-004  -36.5844350597907     
  6.552824470759675E-003  2.235543103320047E-004  -33.6711714638114     
  6.928268296718445E-003  8.240434784767526E-005  -25.6484968287676     
  7.462677746073759E-003 -2.809874001083675E-004  -14.7060772300700     
  8.725114693205180E-003 -7.868026976540490E-004  -4.49291204025378     
  3.704743686289772E-003 -2.476490621251583E-004  -4.43742331848987     
  3.301541475902943E-003 -2.456496834598455E-004  -14.6501801237563     
  2.895300034099391E-003 -2.441065911248422E-004  -25.5916474533675     
  2.488460304913887E-003 -2.430932686165504E-004  -33.6131447688050     
  2.081259510435769E-003 -2.415090817760463E-004  -36.5252667788142     
  1.671731139903303E-003 -2.386825518607857E-004  -33.5986614049783     
  1.254385640810949E-003 -2.372203171849437E-004  -25.5635590047798     
  8.208312298440322E-004 -2.565045180919333E-004  -14.6102467177596     
  3.771289354312625E-004 -3.205946076151404E-004  -4.38827593282276     
 -2.101833425582749E-006 -2.957030822935441E-004 -0.461531818103503     
 -1.622680590687343E-006 -1.515445056229668E-007 -0.712441931452842     
 -8.728461756024355E-007  2.954001559392048E-004 -0.461531518498419     
  3.778411820982014E-004  3.203609578198540E-004  -4.38827591247169     
  8.215661147005098E-004  2.567273996895307E-004  -14.6102467120120     
  1.255032002193290E-003  2.378000772259581E-004  -25.5635590080955     
  1.672291316992452E-003  2.395546521958924E-004  -33.5986614220477     
  2.081741124420443E-003  2.426318368653145E-004  -36.5252668056233     
  2.488869643748533E-003  2.444291941202820E-004  -33.6131448087530     
  2.895643052040525E-003  2.456211125653089E-004  -25.5916475036310     
  3.301824078996642E-003  2.473111381536620E-004  -14.6501801866279     
  3.704971585497617E-003  2.494288553801950E-004  -4.43742339209164     
 -3.814196453764526E-004 -3.212927837208516E-004  -4.38827289439660     
 -8.275552422302760E-004 -2.592118297256628E-004  -14.6102433089856     
 -1.262860004989627E-003 -2.423556333197364E-004  -25.5635572174863     
 -1.681723789090963E-003 -2.465715771922165E-004  -33.5986625088275     
 -2.092635626156603E-003 -2.525019775158696E-004  -36.5252714244398     
 -2.501096127837853E-003 -2.575165982243306E-004  -33.6131528893113     
 -2.909065137047919E-003 -2.622372667316150E-004  -25.5916584421573     
 -3.316295288821360E-003 -2.677045598514187E-004  -14.6501926834210     
 -3.720317815723219E-003 -2.737750404983563E-004  -4.43743571456895     
 -4.134789579360074E-003 -1.522454840967238E-004 -0.499752769991808     
 -4.132803685162435E-003 -2.884920181797090E-005 -0.741732233064251     
 -4.127093201472735E-003  9.453100490162956E-005 -0.499754373065046     
 -3.705030804636238E-003  2.241452883829736E-004  -4.43743911844795     
 -3.301463609324470E-003  2.260679734635502E-004  -14.6501957049771     
 -2.894985442019957E-003  2.282819150366974E-004  -25.5916610821625     
 -2.488050163987447E-003  2.307930128649953E-004  -33.6131551482689     
 -2.080905065206949E-003  2.324228751289368E-004  -36.5252733004519     
 -1.671590114744902E-003  2.324089176569346E-004  -33.5986640052270     
 -1.254603556180995E-003  2.332385460525218E-004  -25.5635583294677     
 -8.214515549257760E-004  2.541569830806106E-004  -14.6102440428939     
 -3.778478160931338E-004  3.191914464469951E-004  -4.38827324216239     
 -4.545555932266625E-003 -2.786866165823228E-004  -4.44618150454417     
 -4.966546421622606E-003 -2.860117351409158E-004  -14.6698600895126     
 -5.383406943766928E-003 -2.941449391447626E-004  -25.6237938816065     
 -5.795224041323417E-003 -3.027324534992215E-004  -33.6586701211238     
 -6.194573518527453E-003 -3.058758490233963E-004  -36.5844724780919     
 -6.571982548481412E-003 -2.757024727791468E-004  -33.6712182212379     
 -6.947384609625058E-003 -1.376523412698304E-004  -25.6485519153262     
 -7.481807007367733E-003  2.232872565803002E-004  -14.7061385223674     
 -8.744933603675783E-003  7.272515012343176E-004  -4.49297695359498     
 -6.707599521345614E-003  1.350847667352585E-004 -0.504942885600154     
 -6.255024824607235E-003 -6.327008232452515E-005 -0.719575216873866     
 -6.703718981435875E-003 -2.616057858186921E-004 -0.504945185406112     
 -8.737363168621779E-003 -8.500915263849079E-004  -4.49298195315240     
 -7.472066586713593E-003 -3.411942672390334E-004  -14.7061433891056     
 -6.935928839654508E-003  2.553512825692815E-005  -25.6485566446754     
 -6.559095246574183E-003  1.701263307811243E-004  -33.6712228172528     
 -6.180538151105615E-003  2.074871327424738E-004  -36.5844769370534     
 -5.780326014685598E-003  2.120339962669479E-004  -33.6586744464759     
 -5.367932041851850E-003  2.114966125123608E-004  -25.6237980701441     
 -4.950780373558924E-003  2.116336341636204E-004  -14.6698641442520     
 -4.529799228283901E-003  2.126589958643921E-004  -4.44618542252069     
 -7.423995460961850E-003 -6.098935854848226E-005  -4.50275491689778     
 -4.839762998412772E-003  4.429347094182208E-004  -14.7261713959814     
 -2.984191338948738E-003  8.039533755733021E-004  -25.6791377709735     
 -1.287327181402593E-003  9.421386658148194E-004  -33.7124377851835     
  4.125547067435599E-004  9.729897730517898E-004  -36.6362694663831     
  2.136187737564248E-003  9.734186874477162E-004  -33.7207704883923     
  3.872392087541785E-003  9.775308355801234E-004  -25.6958438405793     
  5.600190561242588E-003  1.000723852501488E-003  -14.7513016038633     
  7.270974713653480E-003  1.036476452883209E-003  -4.53645092112202     
  9.207196923549901E-003  4.543021864982205E-004 -0.460351585801180     
  9.245503634685324E-003 -9.115373298261326E-005 -0.627673233506682     
  9.212398052733288E-003 -6.365583830502541E-004 -0.460354516319505     
  7.282047478316003E-003 -1.212812766037445E-003  -4.53645707725908     
  5.611799674309107E-003 -1.170909956545874E-003  -14.7513076519656     
  3.884224692053532E-003 -1.141396257212759E-003  -25.6958497701642     
  2.147959287790070E-003 -1.130928492066688E-003  -33.7207763087050     
  4.239810558606503E-004 -1.124245520075345E-003  -36.6362751691405     
 -1.276529961469428E-003 -1.087384068258420E-003  -33.7124433778174     
 -2.974305276830105E-003 -9.435749376210440E-004  -25.6791432468252     
 -4.831070524577245E-003 -5.774231874330029E-004  -14.7261767610243     
 -7.416949874009625E-003 -6.896150002827382E-005  -4.50276016564553     
  1.092002845090899E-002  9.686350085180604E-004  -4.54251050327884     
  1.289728346095976E-002  1.008637852644078E-003  -14.7591145774860     
  1.481504404076094E-002  1.040476800152111E-003  -25.7021386054218     
  1.671123376513824E-002  1.058134674537855E-003  -33.7231948478460     
  1.858095149495661E-002  1.057154518727051E-003  -36.6335870279329     
  2.040499043000000E-002  9.823892684530831E-004  -33.7043199775028     
  2.222607778484877E-002  6.739238153938021E-004  -25.6664779488226     
  2.439392486882986E-002 -1.175331321046790E-004  -14.7107811390705     
  2.814740392980447E-002 -1.217865064960159E-003  -4.48780155983155     
  2.472181560626984E-002 -2.325540141101940E-004 -0.280734766619076     
  2.374069631877236E-002 -1.038962492710670E-004 -0.377981402489753     
  2.471949736475443E-002  2.489605150663405E-005 -0.280746943627486     
  2.814316863239473E-002  1.007969377620652E-003  -4.48782426698602     
  2.439269682640544E-002 -9.306802474430320E-005  -14.7108020039732     
  2.222735597464921E-002 -8.839878302006874E-004  -25.6664969993802     
  2.040846937155685E-002 -1.190778207959608E-003  -33.7043371951422     
  1.858632941378023E-002 -1.262842759782828E-003  -36.6336024220751     
  1.671820669364026E-002 -1.260248473885001E-003  -33.7232084181309     
  1.482330772200268E-002 -1.238294917176721E-003  -25.7021503431576     
  1.290653393246069E-002 -1.201584992813963E-003  -14.7591245005143     
  1.092993413482782E-002 -1.156282635399312E-003  -4.54251858427958     
  2.727995722589265E-002  4.911623013893772E-004  -4.48608960560917     
  2.266007895858724E-002 -6.096212354186730E-004  -14.6949781184053     
  1.962540102127740E-002 -1.400556090267518E-003  -25.6277085127150     
  1.693689422592729E-002 -1.708794000139317E-003  -33.6369517194820     
  1.424622678487459E-002 -1.785890858025579E-003  -36.5356413312285     
  1.151668257870333E-002 -1.793393925956375E-003  -33.5958935559604     
  8.784002693021424E-003 -1.779039112962420E-003  -25.5505449321743     
  6.080447590159359E-003 -1.697255210670741E-003  -14.5914817630492     
  3.360284768789524E-003 -1.435812876289368E-003  -4.37116319085847     
  6.158687767203196E-004 -2.393273831089538E-004 -2.090392916607712E-003
  7.197226026213263E-004 -8.971283390167599E-005 -2.026437978424480E-003
  6.080272459183197E-004  5.991507730882689E-005 -2.105032860235226E-003
  3.347797859444702E-003  1.250792542413044E-003  -4.37119194079191     
  6.070504682698102E-003  1.507407527841049E-003  -14.5915100329599     
  8.776121169976924E-003  1.585523748090096E-003  -25.5505727406461     
  1.151037907394953E-002  1.597116540183995E-003  -33.5959208865790     
  1.424100915465215E-002  1.587519757430599E-003  -36.5356681984089     
  1.693227091994223E-002  1.508748945212847E-003  -33.6369781106544     
  1.962088263667504E-002  1.199009358760736E-003  -25.6277344387431     
  2.265517898746411E-002  4.065446166634462E-004  -14.6950035700041     
  2.727400009130697E-002 -6.960062567300621E-004  -4.48611459061379     
 -2.723337650735649E-002 -5.888706339958992E-004  -4.48569080556150     
 -2.257351109453827E-002  5.191460952053832E-004  -14.6945933948094     
 -1.950771731331630E-002  1.315403972778793E-003  -25.6273415598128     
 -1.678963208906856E-002  1.626325414173481E-003  -33.6366074979505     
 -1.406880573716619E-002  1.705726810242139E-003  -36.5353240503742     
 -1.130919985459372E-002  1.717722064035172E-003  -33.5956072385529     
 -8.551172482228987E-003  1.712039134458300E-003  -25.5502912310421     
 -5.839767171976712E-003  1.635688996150580E-003  -14.5912604725424     
 -3.150203412695466E-003  1.356158828391915E-003  -4.37096988335063     
 -2.691541593581020E-004  6.682228254009965E-005 -8.973933214497661E-004
 -3.132959700473218E-004 -8.429836807255949E-010 -8.656852249177696E-004
 -2.691535216210752E-004 -6.682414333886601E-005 -8.973924721528660E-004
 -3.150178112000801E-003 -1.356143469910387E-003  -4.37096987576980     
 -5.839722563656391E-003 -1.635650438677258E-003  -14.5912604621102     
 -8.551112085395145E-003 -1.711968508575631E-003  -25.5502912172298     
 -1.130912722431999E-002 -1.717612395656752E-003  -33.5956072217299     
 -1.406872450664478E-002 -1.705572870191784E-003  -36.5353240303273     
 -1.678954588627037E-002 -1.626123812541445E-003  -33.6366074747386     
 -1.950762974785404E-002 -1.315153139056805E-003  -25.6273415335310     
 -2.257342577977180E-002 -5.188459191733465E-004  -14.6945933652041     
 -2.723329866008413E-002  5.892187991016731E-004  -4.48569077306675     
 -2.568351205375732E-002  1.487338354419890E-003  -4.67232416030089     
 -2.385368096077384E-002  2.165434220927916E-007  -4.77629493141475     
 -2.568346359093484E-002 -1.486906410324796E-003  -4.67232421765964     
 -2.428792262679415E-002  3.924818105809652E-004  -14.9063992098226     
 -2.380852106657012E-002  2.459515212060585E-007  -15.0183098691035     
 -2.428786413230546E-002 -3.919883960711234E-004  -14.9063992729363     
 -2.246550511946603E-002 -2.913145959975687E-004  -25.8729237230271     
 -2.245141221433128E-002  2.821703886181695E-007  -25.9932200409758     
 -2.246543654825290E-002  2.918803130239169E-004  -25.8729237919448     
 -2.054799009517089E-002 -5.380996201580853E-004  -33.9221916557184     
 -2.060428242258283E-002  3.230773172327660E-007  -34.0504410485552     
 -2.054791320628440E-002  5.387468914638386E-004  -33.9221917305057     
 -1.862432996197511E-002 -5.895529938297852E-004  -36.8636550402194     
 -1.865759125266061E-002  3.676718229281302E-007  -36.9993448154161     
 -1.862424661278995E-002  5.902891683343953E-004  -36.8636551211286     
 -1.670870898925043E-002 -5.848656132595366E-004  -33.9665525242247     
 -1.671901880677640E-002  4.150326866840743E-007  -34.1087234590146     
 -1.670862101796142E-002  5.856962317072841E-004  -33.9665526111349     
 -1.479886540098548E-002 -5.675104698479569E-004  -25.9595594917440     
 -1.480186444835283E-002  4.642468015067797E-007  -26.1077626126307     
 -1.479877464646519E-002  5.684392460952278E-004  -25.9595595851317     
 -1.289456421504190E-002 -5.380958254045990E-004  -15.0311541234380     
 -1.291162751920382E-002  5.143744829042100E-007  -15.1849174927105     
 -1.289447248797586E-002  5.391246217899206E-004  -15.0311542229796     
 -1.100617583540725E-002 -4.961434711303966E-004  -4.82891047306906     
 -1.107225807174496E-002  5.641524014055307E-007  -4.98887215915095     
 -1.100608442871556E-002  4.972723924628745E-004  -4.82891057950915     
 -7.364735926504429E-003 -5.941819324400378E-004  -4.84432718393055     
 -7.431194899029468E-003  6.614906652590622E-007  -5.01575546137495     
 -7.364645871834971E-003  5.955040979194796E-004  -4.84432730258550     
 -5.610324704329308E-003 -5.557151662998227E-004  -15.0662961697596     
 -5.627899413800295E-003  7.102204750356922E-007  -15.2429715767857     
 -5.610235690347407E-003  5.571353552097372E-004  -15.0662962942301     
 -3.871247455587243E-003 -5.329711590400694E-004  -26.0177294900631     
 -3.870594393805819E-003  7.586219505470817E-007  -26.2003953896673     
 -3.871160760117319E-003  5.344879195440543E-004  -26.0177296208878     
 -2.134670693176632E-003 -5.277856988609808E-004  -34.0500744053461     