# vtk DataFile Version 3.0
 Bridge                                                                         
  
ASCII
DATASET UNSTRUCTURED_GRID
 POINTS        4085 double
   200.000000000000       -10.0000000000000       0.000000000000000E+000
   200.000000000000        10.0000000000000       0.000000000000000E+000
   150.000000000000        10.0000000000000       0.000000000000000E+000
   150.000000000000       -10.0000000000000       0.000000000000000E+000
   100.000000000000        10.0000000000000       0.000000000000000E+000
   100.000000000000       -10.0000000000000       0.000000000000000E+000
   50.0000000000000        10.0000000000000       0.000000000000000E+000
   50.0000000000000       -10.0000000000000       0.000000000000000E+000
  0.000000000000000E+000   10.0000000000000       0.000000000000000E+000
  0.000000000000000E+000  -10.0000000000000       0.000000000000000E+000
  -50.0000000000000        10.0000000000000       0.000000000000000E+000
  -50.0000000000000       -10.0000000000000       0.000000000000000E+000
  -100.000000000000        10.0000000000000       0.000000000000000E+000
  -100.000000000000       -10.0000000000000       0.000000000000000E+000
  -150.000000000000        10.0000000000000       0.000000000000000E+000
  -150.000000000000       -10.0000000000000       0.000000000000000E+000
  -200.000000000000        10.0000000000000       0.000000000000000E+000
  -200.000000000000       -10.0000000000000       0.000000000000000E+000
  -250.000000000000        10.0000000000000       0.000000000000000E+000
  -250.000000000000       -10.0000000000000       0.000000000000000E+000
   250.000000000000       -10.0000000000000       0.000000000000000E+000
   250.000000000000        10.0000000000000       0.000000000000000E+000
   200.000000000000       -5.00000000000000       0.000000000000000E+000
   200.000000000000       0.000000000000000E+000  0.000000000000000E+000
   200.000000000000        5.00000000000000       0.000000000000000E+000
   195.000000000000        10.0000000000000       0.000000000000000E+000
   190.000000000000        10.0000000000000       0.000000000000000E+000
   185.000000000000        10.0000000000000       0.000000000000000E+000
   180.000000000000        10.0000000000000       0.000000000000000E+000
   175.000000000000        10.0000000000000       0.000000000000000E+000
   170.000000000000        10.0000000000000       0.000000000000000E+000
   165.000000000000        10.0000000000000       0.000000000000000E+000
   160.000000000000        10.0000000000000       0.000000000000000E+000
   155.000000000000        10.0000000000000       0.000000000000000E+000
   150.000000000000        5.00000000000000       0.000000000000000E+000
   150.000000000000       0.000000000000000E+000  0.000000000000000E+000
   150.000000000000       -5.00000000000000       0.000000000000000E+000
   155.000000000000       -10.0000000000000       0.000000000000000E+000
   160.000000000000       -10.0000000000000       0.000000000000000E+000
   165.000000000000       -10.0000000000000       0.000000000000000E+000
   170.000000000000       -10.0000000000000       0.000000000000000E+000
   175.000000000000       -10.0000000000000       0.000000000000000E+000
   180.000000000000       -10.0000000000000       0.000000000000000E+000
   185.000000000000       -10.0000000000000       0.000000000000000E+000
   190.000000000000       -10.0000000000000       0.000000000000000E+000
   195.000000000000       -10.0000000000000       0.000000000000000E+000
   145.000000000000        10.0000000000000       0.000000000000000E+000
   140.000000000000        10.0000000000000       0.000000000000000E+000
   135.000000000000        10.0000000000000       0.000000000000000E+000
   130.000000000000        10.0000000000000       0.000000000000000E+000
   125.000000000000        10.0000000000000       0.000000000000000E+000
   120.000000000000        10.0000000000000       0.000000000000000E+000
   115.000000000000        10.0000000000000       0.000000000000000E+000
   110.000000000000        10.0000000000000       0.000000000000000E+000
   105.000000000000        10.0000000000000       0.000000000000000E+000
   100.000000000000        5.00000000000000       0.000000000000000E+000
   100.000000000000       0.000000000000000E+000  0.000000000000000E+000
   100.000000000000       -5.00000000000000       0.000000000000000E+000
   105.000000000000       -10.0000000000000       0.000000000000000E+000
   110.000000000000       -10.0000000000000       0.000000000000000E+000
   115.000000000000       -10.0000000000000       0.000000000000000E+000
   120.000000000000       -10.0000000000000       0.000000000000000E+000
   125.000000000000       -10.0000000000000       0.000000000000000E+000
   130.000000000000       -10.0000000000000       0.000000000000000E+000
   135.000000000000       -10.0000000000000       0.000000000000000E+000
   140.000000000000       -10.0000000000000       0.000000000000000E+000
   145.000000000000       -10.0000000000000       0.000000000000000E+000
   95.0000000000000        10.0000000000000       0.000000000000000E+000
   90.0000000000000        10.0000000000000       0.000000000000000E+000
   85.0000000000000        10.0000000000000       0.000000000000000E+000
   80.0000000000000        10.0000000000000       0.000000000000000E+000
   75.0000000000000        10.0000000000000       0.000000000000000E+000
   70.0000000000000        10.0000000000000       0.000000000000000E+000
   65.0000000000000        10.0000000000000       0.000000000000000E+000
   60.0000000000000        10.0000000000000       0.000000000000000E+000
   55.0000000000000        10.0000000000000       0.000000000000000E+000
   50.0000000000000        5.00000000000000       0.000000000000000E+000
   50.0000000000000       0.000000000000000E+000  0.000000000000000E+000
   50.0000000000000       -5.00000000000000       0.000000000000000E+000
   55.0000000000000       -10.0000000000000       0.000000000000000E+000
   60.0000000000000       -10.0000000000000       0.000000000000000E+000
   65.0000000000000       -10.0000000000000       0.000000000000000E+000
   70.0000000000000       -10.0000000000000       0.000000000000000E+000
   75.0000000000000       -10.0000000000000       0.000000000000000E+000
   80.0000000000000       -10.0000000000000       0.000000000000000E+000
   85.0000000000000       -10.0000000000000       0.000000000000000E+000
   90.0000000000000       -10.0000000000000       0.000000000000000E+000
   95.0000000000000       -10.0000000000000       0.000000000000000E+000
   45.0000000000000        10.0000000000000       0.000000000000000E+000
   40.0000000000000        10.0000000000000       0.000000000000000E+000
   35.0000000000000        10.0000000000000       0.000000000000000E+000
   30.0000000000000        10.0000000000000       0.000000000000000E+000
   25.0000000000000        10.0000000000000       0.000000000000000E+000
   20.0000000000000        10.0000000000000       0.000000000000000E+000
   15.0000000000000        10.0000000000000       0.000000000000000E+000
   10.0000000000000        10.0000000000000       0.000000000000000E+000
   5.00000000000000        10.0000000000000       0.000000000000000E+000
  0.000000000000000E+000   5.00000000000000       0.000000000000000E+000
  0.000000000000000E+000  0.000000000000000E+000  0.000000000000000E+000
  0.000000000000000E+000  -5.00000000000000       0.000000000000000E+000
   5.00000000000000       -10.0000000000000       0.000000000000000E+000
   10.0000000000000       -10.0000000000000       0.000000000000000E+000
   15.0000000000000       -10.0000000000000       0.000000000000000E+000
   20.0000000000000       -10.0000000000000       0.000000000000000E+000
   25.0000000000000       -10.0000000000000       0.000000000000000E+000
   30.0000000000000       -10.0000000000000       0.000000000000000E+000
   35.0000000000000       -10.0000000000000       0.000000000000000E+000
   40.0000000000000       -10.0000000000000       0.000000000000000E+000
   45.0000000000000       -10.0000000000000       0.000000000000000E+000
  -5.00000000000000        10.0000000000000       0.000000000000000E+000
  -10.0000000000000        10.0000000000000       0.000000000000000E+000
  -15.0000000000000        10.0000000000000       0.000000000000000E+000
  -20.0000000000000        10.0000000000000       0.000000000000000E+000
  -25.0000000000000        10.0000000000000       0.000000000000000E+000
  -30.0000000000000        10.0000000000000       0.000000000000000E+000
  -35.0000000000000        10.0000000000000       0.000000000000000E+000
  -40.0000000000000        10.0000000000000       0.000000000000000E+000
  -45.0000000000000        10.0000000000000       0.000000000000000E+000
  -50.0000000000000        5.00000000000000       0.000000000000000E+000
  -50.0000000000000       0.000000000000000E+000  0.000000000000000E+000
  -50.0000000000000       -5.00000000000000       0.000000000000000E+000
  -45.0000000000000       -10.0000000000000       0.000000000000000E+000
  -40.0000000000000       -10.0000000000000       0.000000000000000E+000
  -35.0000000000000       -10.0000000000000       0.000000000000000E+000
  -30.0000000000000       -10.0000000000000       0.000000000000000E+000
  -25.0000000000000       -10.0000000000000       0.000000000000000E+000
  -20.0000000000000       -10.0000000000000       0.000000000000000E+000
  -15.0000000000000       -10.0000000000000       0.000000000000000E+000
  -10.0000000000000       -10.0000000000000       0.000000000000000E+000
  -5.00000000000000       -10.0000000000000       0.000000000000000E+000
  -55.0000000000000        10.0000000000000       0.000000000000000E+000
  -60.0000000000000        10.0000000000000       0.000000000000000E+000
  -65.0000000000000        10.0000000000000       0.000000000000000E+000
  -70.0000000000000        10.0000000000000       0.000000000000000E+000
[...]
 CELL_DATA        2884
 POINT_DATA        4085
 FIELD Result            2
 Displacement_Load_Case01            3        4085 double
 -3.683713787614794E-002  2.664293652967842E-004 -0.106656978339472     
 -3.683707989445018E-002 -2.660393352484910E-004 -0.106656942234668     
 -8.764182161815690E-003  1.089374218033371E-003 -0.159665852202679     
 -8.764359307236564E-003 -1.088148590732546E-003 -0.159665900286175     
  1.224482065021100E-002  3.974980506622408E-004 -0.117399547911697     
  1.224478542755868E-002 -3.955043034431880E-004 -0.117399588031916     
  4.098371454621509E-003 -2.453075004106387E-004 -6.149929717049982E-002
  4.098549940155409E-003  2.471771889306713E-004 -6.149938346651124E-002
  1.158525266808920E-007 -7.267365252741891E-004 -6.650474735842865E-003
  2.490016833087781E-007  7.264829096173560E-004 -6.650446892175112E-003
 -4.114515164299478E-003 -2.755296480449054E-004 -6.150915463483774E-002
 -4.099135388206231E-003  2.177676411827273E-004 -6.151293936729816E-002
 -1.226748570907461E-002  3.336271493685499E-004 -0.117464618313398     
 -1.226330594459272E-002 -4.600909756917625E-004 -0.117469756556289     
  8.762915616485489E-003  9.989417985910940E-004 -0.159866683100049     
  8.773016686436106E-003 -1.181040775753492E-003 -0.159872960072292     
  3.681572000645209E-002 -3.599734373520085E-004 -0.107066835370183     
  3.680714123566897E-002  1.527508895409415E-004 -0.107091347208740     
  2.626971669215476E-004 -5.553390898170695E-004 -3.422840859776159E-004
  2.470598205219136E-004  3.759833874556818E-004 -3.714931003408060E-004
 -1.300585251429202E-004  1.968678207149576E-004 -1.687351709908322E-004
 -1.300570166139699E-004 -1.968700960137845E-004 -1.687311339895330E-004
 -2.467530686072790E-002  1.338046154386429E-004 -0.279558141825669     
 -2.368956319933115E-002  1.936896534501489E-007 -0.376712765034840     
 -2.467526162782545E-002 -1.334165721964227E-004 -0.279558193607152     
 -2.813329526887451E-002 -1.127292611280179E-003  -4.48738514029577     
 -2.437261333869950E-002 -2.006127333078505E-005  -14.7103711267457     
 -2.220662370087574E-002  7.758257225825546E-004  -25.6660850704151     
 -2.038926508401554E-002  1.085298386134260E-003  -33.7039533664319     
 -1.856877498607676E-002  1.159186910593717E-003  -36.6332526362434     
 -1.670217298881416E-002  1.158438715252094E-003  -33.7228960866257     
 -1.480879070533041E-002  1.138640445729702E-003  -25.7018748666113     
 -1.289364449315652E-002  1.104409404326564E-003  -14.7588818873483     
 -1.091887926404643E-002  1.061828832794895E-003  -4.54230014444738     
 -9.205678528495832E-003  5.454290474843788E-004 -0.459604051934831     
 -9.241398677490202E-003  6.129978969379895E-007 -0.626810395456317     
 -9.205770270943188E-003 -5.442031449182369E-004 -0.459603939290828     
 -1.091906477284853E-002 -1.060700365214104E-003  -4.54230019053678     
 -1.289383218137111E-002 -1.103380488075198E-003  -14.7588819328277     
 -1.480897645674911E-002 -1.137710833525827E-003  -25.7018749105535     
 -1.670235314719141E-002 -1.157606429080494E-003  -33.7228961297230     
 -1.856894589558309E-002 -1.158448242771662E-003  -36.6332526779914     
 -2.038942308862383E-002 -1.084647797115020E-003  -33.7039534071605     
 -2.220676516172335E-002 -7.752558367208026E-004  -25.6660851099650     
 -2.437273461393899E-002  2.055930573218171E-005  -14.7103711651113     
 -2.813339111426400E-002  1.127729119910917E-003  -4.48738517762766     
 -7.274475147407436E-003  1.124056053791577E-003  -4.53625443403798     
 -5.605865157062409E-003  1.085311671859510E-003  -14.7511150580983     
 -3.880134826662261E-003  1.059028368072997E-003  -25.6956715293350     
 -2.145863432527336E-003  1.051789340330563E-003  -33.7206160547060     
 -4.240074680512400E-004  1.048280396915152E-003  -36.6361347970984     
  1.274266329777839E-003  1.014506359461751E-003  -33.7123236162579     
  2.969665080212677E-003  8.737204586265574E-004  -25.6790426993736     
  4.823713707481778E-003  5.106188047207202E-004  -14.7260924326275     
  7.405741697642747E-003  5.082347493519442E-006  -4.50268660915859     
  6.691991674250525E-003  1.991630649263625E-004 -0.504524150638548     
  6.241903224315276E-003  9.996624969570088E-007 -0.719061518798977     
  6.691963315650093E-003 -1.971651267161793E-004 -0.504523971934664     
  7.405669176799498E-003 -3.122643630367337E-006  -4.50268664871884     
  4.823613668035682E-003 -5.087090368344502E-004  -14.7260924739934     
  2.969542277288794E-003 -8.718724349798604E-004  -25.6790427408670     
  1.274124388765847E-003 -1.012730322806619E-003  -33.7123236592244     
 -4.241649273774222E-004 -1.046585019724391E-003  -36.6361348404479     
 -2.146032778717951E-003 -1.050181474608804E-003  -33.7206160992963     
 -3.880312430018431E-003 -1.057513046899088E-003  -25.6956715745303     
 -5.606047386499153E-003 -1.083892211339088E-003  -14.7511151043267     
 -7.274657910968039E-003 -1.122734053787633E-003  -4.53625448103352     
  8.725152030376182E-003  7.888223909152792E-004  -4.49291199598176     
  7.462707198360092E-003  2.830308627269481E-004  -14.7060771804253     
  6.928284940852204E-003 -8.034303835674318E-005  -25.6484967747827     
  6.552824506978296E-003 -2.214827427970872E-004  -33.6711714044814     
  6.175498653407390E-003 -2.552072648188240E-004  -36.5844349967469     
  5.776399568023017E-003 -2.559140341352401E-004  -33.6586422734595     
  5.364989072101881E-003 -2.513726002358378E-004  -25.6237746983472     
  4.948686367845133E-003 -2.474083653642195E-004  -14.6698476738549     
  4.528426431917148E-003 -2.443037239659321E-004  -4.44617256748351     
  4.122351603342304E-003 -1.222436393300114E-004 -0.499568931741201     
  4.124246459418221E-003  9.431938618155079E-007 -0.741496232547537     
  4.122445507193508E-003  1.241259425291970E-004 -0.499568723804803     
  4.528566591133806E-003  2.462496035159740E-004  -4.44617264702709     
  4.948790899801703E-003  2.494093837412163E-004  -14.6698477504072     
  5.365061707216756E-003  2.534118444604333E-004  -25.6237747691099     
  5.776444162058168E-003  2.579764738046122E-004  -33.6586423407760     
  6.175519025308069E-003  2.572798469671543E-004  -36.5844350586141     
  6.552824470696729E-003  2.235543101201038E-004  -33.6711714625985     
  6.928268296658880E-003  8.240434763477934E-005  -25.6484968277342     
  7.462677746017064E-003 -2.809874003169537E-004  -14.7060772293691     
  8.725114693146576E-003 -7.868026978534230E-004  -4.49291203994075     
  3.704743686283592E-003 -2.476490622554103E-004  -4.43742331844987     
  3.301541475900388E-003 -2.456496835750771E-004  -14.6501801236022     
  2.895300034099746E-003 -2.441065912250707E-004  -25.5916474530688     
  2.488460304916406E-003 -2.430932687021567E-004  -33.6131447683750     
  2.081259510439697E-003 -2.415090818477828E-004  -36.5252667782995     
  1.671731139907867E-003 -2.386825519197403E-004  -33.5986614044444     
  1.254385640815251E-003 -2.372203172325067E-004  -25.5635590042963     
  8.208312298467589E-004 -2.565045181299395E-004  -14.6102467173969     
  3.771289354300337E-004 -3.205946076463559E-004  -4.38827593264037     
 -2.101833424782740E-006 -2.957030823238332E-004 -0.461531818110782     
 -1.622680591343921E-006 -1.515445347717209E-007 -0.712441931462032     
 -8.728461793837835E-007  2.954001559113717E-004 -0.461531518502498     
  3.778411820797538E-004  3.203609577832650E-004  -4.38827591228881     
  8.215661146757721E-004  2.567273996459474E-004  -14.6102467116485     
  1.255032002161604E-003  2.378000771735460E-004  -25.5635590076105     
  1.672291316954009E-003  2.395546521326663E-004  -33.5986614215118     
  2.081741124375888E-003  2.426318367895274E-004  -36.5252668051065     
  2.488869643698637E-003  2.444291940306707E-004  -33.6131448083208     
  2.895643051986078E-003  2.456211124610458E-004  -25.5916475033304     
  3.301824078938444E-003  2.473111380343128E-004  -14.6501801864722     
  3.704971585436550E-003  2.494288552457191E-004  -4.43742339205061     
 -3.814196453748126E-004 -3.212927837494202E-004  -4.38827289461708     
 -8.275552422226016E-004 -2.592118297532762E-004  -14.6102433094968     
 -1.262860004976922E-003 -2.423556333485999E-004  -25.5635572182642     
 -1.681723789072932E-003 -2.465715772240607E-004  -33.5986625097547     
 -2.092635626132768E-003 -2.525019775517118E-004  -36.5252714253440     
 -2.501096127807784E-003 -2.575165982648191E-004  -33.6131528900296     
 -2.909065137011247E-003 -2.622372667771550E-004  -25.5916584425940     
 -3.316295288777798E-003 -2.677045599022019E-004  -14.6501926835743     
 -3.720317815672697E-003 -2.737750405544419E-004  -4.43743571453685     
 -4.134789579296029E-003 -1.522454841608061E-004 -0.499752770001545     
 -4.132803685093594E-003 -2.884920188441180E-005 -0.741732233076317     
 -4.127093201399437E-003  9.453100483292670E-005 -0.499754373071685     
 -3.705030804565909E-003  2.241452883173276E-004  -4.43743911841507     
 -3.301463609261203E-003  2.260679734035758E-004  -14.6501957051292     
 -2.894985441964370E-003  2.282819149822238E-004  -25.5916610825978     
 -2.488050163939934E-003  2.307930128156479E-004  -33.6131551489857     
 -2.080905065167824E-003  2.324228750842140E-004  -36.5252733013544     
 -1.671590114714418E-003  2.324089176162388E-004  -33.5986640061526     
 -1.254603556159356E-003  2.332385460152723E-004  -25.5635583302443     
 -8.214515549133337E-004  2.541569830465759E-004  -14.6102440434041     
 -3.778478160912420E-004  3.191914464159577E-004  -4.38827324238251     
 -4.545555932199783E-003 -2.786866166494046E-004  -4.44618150495283     
 -4.966546421546358E-003 -2.860117352127003E-004  -14.6698600906250     
 -5.383406943681161E-003 -2.941449392207194E-004  -25.6237938833909     
 -5.795224041227834E-003 -3.027324535786547E-004  -33.6586701233167     
 -6.194573518421748E-003 -3.058758491054168E-004  -36.5844724803501     
 -6.571982548365341E-003 -2.757024728628326E-004  -33.6712182232065     
 -6.947384609498250E-003 -1.376523413545461E-004  -25.6485519167322     
 -7.481807007228754E-003  2.232872564945611E-004  -14.7061385231216     
 -8.744933603519155E-003  7.272515011482162E-004  -4.49297695381107     
 -6.707599521202041E-003  1.350847666566324E-004 -0.504942885609362     
 -6.255024824471263E-003 -6.327008240349788E-005 -0.719575216884704     
 -6.703718981301563E-003 -2.616057858979378E-004 -0.504945185411828     
 -8.737363168484459E-003 -8.500915264670762E-004  -4.49298195336784     
 -7.472066586586060E-003 -3.411942673275143E-004  -14.7061433898591     
 -6.935928839532632E-003  2.553512816467258E-005  -25.6485566460809     
 -6.559095246457292E-003  1.701263306880329E-004  -33.6712228192213     
 -6.180538150994100E-003  2.074871326506024E-004  -36.5844769393117     
 -5.780326014579975E-003  2.120339961776784E-004  -33.6586744486690     
 -5.367932041752584E-003  2.114966124267262E-004  -25.6237980719286     
 -4.950780373466489E-003  2.116336340824630E-004  -14.6698641453642     
 -4.529799228198956E-003  2.126589957883325E-004  -4.44618542292905     
 -7.423995460802225E-003 -6.098935861857712E-005  -4.50275491711374     
 -4.839762998267799E-003  4.429347093484534E-004  -14.7261713967610     
 -2.984191338812931E-003  8.039533755036686E-004  -25.6791377725004     
 -1.287327181274515E-003  9.421386657457845E-004  -33.7124377874525     
  4.125547068642873E-004  9.729897729831918E-004  -36.6362694691677     
  2.136187737677883E-003  9.734186873791169E-004  -33.7207704912842     
  3.872392087648635E-003  9.775308355111424E-004  -25.6958438430948     
  5.600190561342904E-003  1.000723852431973E-003  -14.7513016055988     
  7.270974713747165E-003  1.036476452813147E-003  -4.53645092191173     
  9.207196923639766E-003  4.543021864286128E-004 -0.460351585806249     
  9.245503634775436E-003 -9.115373305066109E-005 -0.627673233512659     
  9.212398052823036E-003 -6.365583831166632E-004 -0.460354516322451     
  7.282047478410734E-003 -1.212812766101638E-003  -4.53645707804807     
  5.611799674410503E-003 -1.170909956608819E-003  -14.7513076537001     
  3.884224692160688E-003 -1.141396257274644E-003  -25.6958497726783     
  2.147959287902462E-003 -1.130928492127947E-003  -33.7207763115953     
  4.239810559778105E-004 -1.124245520136568E-003  -36.6362751719233     
 -1.276529961348017E-003 -1.087384068320523E-003  -33.7124433800848     
 -2.974305276704833E-003 -9.435749376856141E-004  -25.6791432483506     
 -4.831070524447444E-003 -5.774231875025074E-004  -14.7261767618025     
 -7.416949873871169E-003 -6.896150010478097E-005  -4.50276016586053     
  1.092002845099285E-002  9.686350084460833E-004  -4.54251050247057     
  1.289728346104046E-002  1.008637852572164E-003  -14.7591145756403     
  1.481504404083840E-002  1.040476800080710E-003  -25.7021386025491     
  1.671123376521276E-002  1.058134674467564E-003  -33.7231948441519     
  1.858095149502860E-002  1.057154518658743E-003  -36.6335870238482     
  2.040499043006989E-002  9.823892683878963E-004  -33.7043199736369     
  2.222607778491697E-002  6.739238153331260E-004  -25.6664779457569     
  2.439392486889675E-002 -1.175331321592885E-004  -14.7107811371417     
  2.814740392987057E-002 -1.217865065007042E-003  -4.48780155904331     
  2.472181560632197E-002 -2.325540141458714E-004 -0.280734766620623     
  2.374069631881556E-002 -1.038962493054604E-004 -0.377981402491253     
  2.471949736478844E-002  2.489605147354395E-005 -0.280746943627603     
  2.814316863242263E-002  1.007969377578724E-003  -4.48782426619787     
  2.439269682644225E-002 -9.306802479367480E-005  -14.7108020020445     
  2.222735597469400E-002 -8.839878302559275E-004  -25.6664969963148     
  2.040846937160916E-002 -1.190778208019286E-003  -33.7043371912769     
  1.858632941383966E-002 -1.262842759845612E-003  -36.6336024179915     
  1.671820669370642E-002 -1.260248473949723E-003  -33.7232084144377     
  1.482330772207517E-002 -1.238294917242360E-003  -25.7021503402855     
  1.290653393253899E-002 -1.201584992879620E-003  -14.7591244986691     
  1.092993413491102E-002 -1.156282635464348E-003  -4.54251858347132     
  2.727995722595012E-002  4.911623013622817E-004  -4.48608960616697     
  2.266007895863691E-002 -6.096212354380708E-004  -14.6949781195635     
  1.962540102131983E-002 -1.400556090280852E-003  -25.6277085144524     
  1.693689422596286E-002 -1.708794000148101E-003  -33.6369517216716     
  1.424622678490375E-002 -1.785890858031152E-003  -36.5356413335636     
  1.151668257872652E-002 -1.793393925959823E-003  -33.5958935580134     
  8.784002693039078E-003 -1.779039112964554E-003  -25.5505449336009     
  6.080447590171774E-003 -1.697255210672082E-003  -14.5914817637719     
  3.360284768796452E-003 -1.435812876290255E-003  -4.37116319105424     
  6.158687767249132E-004 -2.393273831094139E-004 -2.090392916618053E-003
  7.197226026257820E-004 -8.971283390058897E-005 -2.026437978431930E-003
  6.080272459195657E-004  5.991507731020612E-005 -2.105032860234465E-003
  3.347797859449620E-003  1.250792542415893E-003  -4.37119194098756     
  6.070504682706644E-003  1.507407527843892E-003  -14.5915100336821     
  8.776121169988448E-003  1.585523748092548E-003  -25.5505727420721     
  1.151037907396351E-002  1.597116540185306E-003  -33.5959208886310     
  1.424100915466815E-002  1.587519757429834E-003  -36.5356682007431     
  1.693227091995984E-002  1.508748945208900E-003  -33.6369781128433     
  1.962088263669383E-002  1.199009358752321E-003  -25.6277344404800     
  2.265517898748361E-002  4.065446166491699E-004  -14.6950035711621     
  2.727400009132622E-002 -6.960062567517545E-004  -4.48611459117143     
 -2.723337650707189E-002 -5.888706340534775E-004  -4.48569080500482     
 -2.257351109430400E-002  5.191460951577537E-004  -14.6945933934446     
 -1.950771731311676E-002  1.315403972739740E-003  -25.6273415577244     
 -1.678963208889977E-002  1.626325414143444E-003  -33.6366074954535     
 -1.406880573702717E-002  1.705726810219676E-003  -36.5353240478704     
 -1.130919985448381E-002  1.717722064017925E-003  -33.5956072363963     
 -8.551172482147158E-003  1.712039134443983E-003  -25.5502912294736     
 -5.839767171921528E-003  1.635688996137885E-003  -14.5912604716749     
 -3.150203412665686E-003  1.356158828381200E-003  -4.37096988309786     
 -2.691541593540912E-004  6.682228253949663E-005 -8.973933214441780E-004
 -3.132959700431752E-004 -8.429837109046038E-010 -8.656852249126448E-004
 -2.691535216177114E-004 -6.682414333879325E-005 -8.973924721497907E-004
 -3.150178111973135E-003 -1.356143469897851E-003  -4.37096987551702     
 -5.839722563608076E-003 -1.635650438661780E-003  -14.5912604612427     
 -8.551112085326924E-003 -1.711968508560443E-003  -25.5502912156613     
 -1.130912722423242E-002 -1.717612395644420E-003  -33.5956072195732     
 -1.406872450653885E-002 -1.705572870184892E-003  -36.5353240278236     
 -1.678954588614739E-002 -1.626123812543506E-003  -33.6366074722417     
 -1.950762974771504E-002 -1.315153139073258E-003  -25.6273415314427     
 -2.257342577961477E-002 -5.188459192121395E-004  -14.6945933638395     
 -2.723329865989712E-002  5.892187990337778E-004  -4.48569077251028     
 -2.568351205351143E-002  1.487338354291403E-003  -4.67232416058718     
 -2.385368096056747E-002  2.165433073070830E-007  -4.77629493170236     
 -2.568346359073635E-002 -1.486906410427650E-003  -4.67232421794691     
 -2.428792262656400E-002  3.924818104418589E-004  -14.9063992102889     
 -2.380852106636425E-002  2.459513848814798E-007  -15.0183098695712     
 -2.428786413211557E-002 -3.919883962035208E-004  -14.9063992734035     
 -2.246550511925583E-002 -2.913145961466093E-004  -25.8729237235609     
 -2.245141221413726E-002  2.821702364447836E-007  -25.9932200415115     
 -2.246543654807481E-002  2.918803128697675E-004  -25.8729237924797     
 -2.054799009498103E-002 -5.380996203169410E-004  -33.9221916562134     
 -2.060428242240488E-002  3.230771531744667E-007  -34.0504410490522     
 -2.054791320611934E-002  5.387468912956101E-004  -33.9221917310019     
 -1.862432996180515E-002 -5.895529939967557E-004  -36.8636550405808     
 -1.865759125249960E-002  3.676716503867010E-007  -36.9993448157798     
 -1.862424661263845E-002  5.902891681571622E-004  -36.8636551214913     
 -1.670870898909984E-002 -5.848656134321747E-004  -33.9665525244137     
 -1.671901880663225E-002  4.150325085852942E-007  -34.1087234592059     
 -1.670862101782390E-002  5.856962315244646E-004  -33.9665526113253     
 -1.479886540085373E-002 -5.675104700239160E-004  -25.9595594917979     
 -1.480186444822536E-002  4.642466203115082E-007  -26.1077626126869     
 -1.479877464634205E-002  5.684392459093949E-004  -25.9595595851870     
 -1.289456421492848E-002 -5.380958255819986E-004  -15.0311541234287     
 -1.291162751909278E-002  5.143743006019241E-007  -15.1849174927035     
 -1.289447248786754E-002  5.391246216031704E-004  -15.0311542229718     
 -1.100617583531156E-002 -4.961434713078226E-004  -4.82891047305213     
 -1.107225807164992E-002  5.641522194761937E-007  -4.98887215913644     
 -1.100608442862235E-002  4.972723922768498E-004  -4.82891057949370     
 -7.364735926441850E-003 -5.941819326132944E-004  -4.84432718398448     
 -7.431194898966048E-003  6.614904867920034E-007  -5.01575546143134     
 -7.364645871771904E-003  5.955040977358578E-004  -4.84432730264091     
 -5.610324704282109E-003 -5.557151664710084E-004  -15.0662961699467     
 -5.627899413752531E-003  7.102202990216145E-007  -15.2429715769752     
 -5.610235690299393E-003  5.571353550288790E-004  -15.0662962944187     
 -3.871247455554876E-003 -5.329711592090687E-004  -26.0177294904831     
 -3.870594393773298E-003  7.586217769864116E-007  -26.2003953900900     
 -3.871160760084633E-003  5.344879193657927E-004  -26.0177296213094     
 -2.134670693158636E-003 -5.277856990281029E-004  -34.0500744060410     