# vtk DataFile Version 3.0
 Bridge                                                                         
  
ASCII
DATASET UNSTRUCTURED_GRID
 POINTS        4085 double
   200.000000000000       -10.0000000000000       0.000000000000000E+000
   200.000000000000        10.0000000000000       0.000000000000000E+000
   150.000000000000        10.0000000000000       0.000000000000000E+000
   150.000000000000       -10.0000000000000       0.000000000000000E+000
   100.000000000000        10.0000000000000       0.000000000000000E+000
   100.000000000000       -10.0000000000000       0.000000000000000E+000
   50.0000000000000        10.0000000000000       0.000000000000000E+000
   50.0000000000000       -10.0000000000000       0.000000000000000E+000
  0.000000000000000E+000   10.0000000000000       0.000000000000000E+000
  0.000000000000000E+000  -10.0000000000000       0.000000000000000E+000
  -50.0000000000000        10.0000000000000       0.000000000000000E+000
  -50.0000000000000       -10.0000000000000       0.000000000000000E+000
  -100.000000000000        10.0000000000000       0.000000000000000E+000
  -100.000000000000       -10.0000000000000       0.000000000000000E+000
  -150.000000000000        10.0000000000000       0.000000000000000E+000
  -150.000000000000       -10.0000000000000       0.000000000000000E+000
  -200.000000000000        10.0000000000000       0.000000000000000E+000
  -200.000000000000       -10.0000000000000       0.000000000000000E+000
  -250.000000000000        10.0000000000000       0.000000000000000E+000
  -250.000000000000       -10.0000000000000       0.000000000000000E+000
   250.000000000000       -10.0000000000000       0.000000000000000E+000
   250.000000000000        10.0000000000000       0.000000000000000E+000
   200.000000000000       -5.00000000000000       0.000000000000000E+000
   200.000000000000       0.000000000000000E+000  0.000000000000000E+000
   200.000000000000        5.00000000000000       0.000000000000000E+000
   195.000000000000        10.0000000000000       0.000000000000000E+000
   190.000000000000        10.0000000000000       0.000000000000000E+000
   185.000000000000        10.0000000000000       0.000000000000000E+000
   180.000000000000        10.0000000000000       0.000000000000000E+000
   175.000000000000        10.0000000000000       0.000000000000000E+000
   170.000000000000        10.0000000000000       0.000000000000000E+000
   165.000000000000        10.0000000000000       0.000000000000000E+000
   160.000000000000        10.0000000000000       0.000000000000000E+000
   155.000000000000        10.0000000000000       0.000000000000000E+000
   150.000000000000        5.00000000000000       0.000000000000000E+000
   150.000000000000       0.000000000000000E+000  0.000000000000000E+000
   150.000000000000       -5.00000000000000       0.000000000000000E+000
   155.000000000000       -10.0000000000000       0.000000000000000E+000
   160.000000000000       -10.0000000000000       0.000000000000000E+000
   165.000000000000       -10.0000000000000       0.000000000000000E+000
   170.000000000000       -10.0000000000000       0.000000000000000E+000
   175.000000000000       -10.0000000000000       0.000000000000000E+000
   180.000000000000       -10.0000000000000       0.000000000000000E+000
   185.000000000000       -10.0000000000000       0.000000000000000E+000
   190.000000000000       -10.0000000000000       0.000000000000000E+000
   195.000000000000       -10.0000000000000       0.000000000000000E+000
   145.000000000000        10.0000000000000       0.000000000000000E+000
   140.000000000000        10.0000000000000       0.000000000000000E+000
   135.000000000000        10.0000000000000       0.000000000000000E+000
   130.000000000000        10.0000000000000       0.000000000000000E+000
   125.000000000000        10.0000000000000       0.000000000000000E+000
   120.000000000000        10.0000000000000       0.000000000000000E+000
   115.000000000000        10.0000000000000       0.000000000000000E+000
   110.000000000000        10.0000000000000       0.000000000000000E+000
   105.000000000000        10.0000000000000       0.000000000000000E+000
   100.000000000000        5.00000000000000       0.000000000000000E+000
   100.000000000000       0.000000000000000E+000  0.000000000000000E+000
   100.000000000000       -5.00000000000000       0.000000000000000E+000
   105.000000000000       -10.0000000000000       0.000000000000000E+000
   110.000000000000       -10.0000000000000       0.000000000000000E+000
   115.000000000000       -10.0000000000000       0.000000000000000E+000
   120.000000000000       -10.0000000000000       0.000000000000000E+000
   125.000000000000       -10.0000000000000       0.000000000000000E+000
   130.000000000000       -10.0000000000000       0.000000000000000E+000
   135.000000000000       -10.0000000000000       0.000000000000000E+000
   140.000000000000       -10.0000000000000       0.000000000000000E+000
   145.000000000000       -10.0000000000000       0.000000000000000E+000
   95.0000000000000        10.0000000000000       0.000000000000000E+000
   90.0000000000000        10.0000000000000       0.000000000000000E+000
   85.0000000000000        10.0000000000000       0.000000000000000E+000
   80.0000000000000        10.0000000000000       0.000000000000000E+000
   75.0000000000000        10.0000000000000       0.000000000000000E+000
   70.0000000000000        10.0000000000000       0.000000000000000E+000
   65.0000000000000        10.0000000000000       0.000000000000000E+000
   60.0000000000000        10.0000000000000       0.000000000000000E+000
   55.0000000000000        10.0000000000000       0.000000000000000E+000
   50.0000000000000        5.00000000000000       0.000000000000000E+000
   50.0000000000000       0.000000000000000E+000  0.000000000000000E+000
   50.0000000000000       -5.00000000000000       0.000000000000000E+000
   55.0000000000000       -10.0000000000000       0.000000000000000E+000
   60.0000000000000       -10.0000000000000       0.000000000000000E+000
   65.0000000000000       -10.0000000000000       0.000000000000000E+000
   70.0000000000000       -10.0000000000000       0.000000000000000E+000
   75.0000000000000       -10.0000000000000       0.000000000000000E+000
   80.0000000000000       -10.0000000000000       0.000000000000000E+000
   85.0000000000000       -10.0000000000000       0.000000000000000E+000
   90.0000000000000       -10.0000000000000       0.000000000000000E+000
   95.0000000000000       -10.0000000000000       0.000000000000000E+000
   45.0000000000000        10.0000000000000       0.000000000000000E+000
   40.0000000000000        10.0000000000000       0.000000000000000E+000
   35.0000000000000        10.0000000000000       0.000000000000000E+000
   30.0000000000000        10.0000000000000       0.000000000000000E+000
   25.0000000000000        10.0000000000000       0.000000000000000E+000
   20.0000000000000        10.0000000000000       0.000000000000000E+000
   15.0000000000000        10.0000000000000       0.000000000000000E+000
   10.0000000000000        10.0000000000000       0.000000000000000E+000
   5.00000000000000        10.0000000000000       0.000000000000000E+000
  0.000000000000000E+000   5.00000000000000       0.000000000000000E+000
  0.000000000000000E+000  0.000000000000000E+000  0.000000000000000E+000
  0.000000000000000E+000  -5.00000000000000       0.000000000000000E+000
   5.00000000000000       -10.0000000000000       0.000000000000000E+000
   10.0000000000000       -10.0000000000000       0.000000000000000E+000
   15.0000000000000       -10.0000000000000       0.000000000000000E+000
   20.0000000000000       -10.0000000000000       0.000000000000000E+000
   25.0000000000000       -10.0000000000000       0.000000000000000E+000
   30.0000000000000       -10.0000000000000       0.000000000000000E+000
   35.0000000000000       -10.0000000000000       0.000000000000000E+000
   40.0000000000000       -10.0000000000000       0.000000000000000E+000
   45.0000000000000       -10.0000000000000       0.000000000000000E+000
  -5.00000000000000        10.0000000000000       0.000000000000000E+000
  -10.0000000000000        10.0000000000000       0.000000000000000E+000
  -15.0000000000000        10.0000000000000       0.000000000000000E+000
  -20.0000000000000        10.0000000000000       0.000000000000000E+000
  -25.0000000000000        10.0000000000000       0.000000000000000E+000
  -30.0000000000000        10.0000000000000       0.000000000000000E+000
  -35.0000000000000        10.0000000000000       0.000000000000000E+000
  -40.0000000000000        10.0000000000000       0.000000000000000E+000
  -45.0000000000000        10.0000000000000       0.000000000000000E+000
  -50.0000000000000        5.00000000000000       0.000000000000000E+000
  -50.0000000000000       0.000000000000000E+000  0.000000000000000E+000
  -50.0000000000000       -5.00000000000000       0.000000000000000E+000
  -45.0000000000000       -10.0000000000000       0.000000000000000E+000
  -40.0000000000000       -10.0000000000000       0.000000000000000E+000
  -35.0000000000000       -10.0000000000000       0.000000000000000E+000
  -30.0000000000000       -10.0000000000000       0.000000000000000E+000
  -25.0000000000000       -10.0000000000000       0.000000000000000E+000
  -20.0000000000000       -10.0000000000000       0.000000000000000E+000
  -15.0000000000000       -10.0000000000000       0.000000000000000E+000
  -10.0000000000000       -10.0000000000000       0.000000000000000E+000
  -5.00000000000000       -10.0000000000000       0.000000000000000E+000
  -55.0000000000000        10.0000000000000       0.000000000000000E+000
  -60.0000000000000        10.0000000000000       0.000000000000000E+000
  -65.0000000000000        10.0000000000000       0.000000000000000E+000
  -70.0000000000000        10.0000000000000       0.000000000000000E+000
[...]
 CELL_DATA        2884
 POINT_DATA        4085
 FIELD Result            2
 Displacement_Load_Case01            3        4085 double
 -3.683713787708508E-002  2.664293655900428E-004 -0.106656978342360     
 -3.683707989515907E-002 -2.660393349676060E-004 -0.106656942237265     
 -8.764182162003524E-003  1.089374218673430E-003 -0.159665852205216     
 -8.764359307454431E-003 -1.088148590140101E-003 -0.159665900289795     
  1.224482065032320E-002  3.974980510543206E-004 -0.117399547912157     
  1.224478542794519E-002 -3.955043030694111E-004 -0.117399588033050     
  4.098371454686142E-003 -2.453075003729071E-004 -6.149929717125069E-002
  4.098549940275786E-003  2.471771889766262E-004 -6.149938346720853E-002
  1.158525330572456E-007 -7.267365252870173E-004 -6.650474735851574E-003
  2.490016862761845E-007  7.264829096398719E-004 -6.650446892184808E-003
 -4.114515164282054E-003 -2.755296481745955E-004 -6.150915463489141E-002
 -4.099135388059624E-003  2.177676410459187E-004 -6.151293936763654E-002
 -1.226748570911659E-002  3.336271486102844E-004 -0.117464618313330     
 -1.226330594420013E-002 -4.600909764478903E-004 -0.117469756555966     
  8.762915616552682E-003  9.989417974217653E-004 -0.159866683100455     
  8.773016686459826E-003 -1.181040776911594E-003 -0.159872960070909     
  3.681572000662321E-002 -3.599734379026195E-004 -0.107066835370697     
  3.680714123536390E-002  1.527508889930325E-004 -0.107091347208101     
  2.626971669239152E-004 -5.553390898150502E-004 -3.422840859775000E-004
  2.470598205204331E-004  3.759833874613652E-004 -3.714931003334443E-004
 -1.300585251452526E-004  1.968678207214267E-004 -1.687351709797003E-004
 -1.300570166165304E-004 -1.968700960171723E-004 -1.687311339815235E-004
 -2.467530686132964E-002  1.338046157287352E-004 -0.279558141832426     
 -2.368956319986201E-002  1.936899404060336E-007 -0.376712765042633     
 -2.467526162832923E-002 -1.334165719125369E-004 -0.279558193612700     
 -2.813329526940277E-002 -1.127292610964713E-003  -4.48738514060610     
 -2.437261333915353E-002 -2.006127294212337E-005  -14.7103711277944     
 -2.220662370129062E-002  7.758257230336117E-004  -25.6660850723539     
 -2.038926508439934E-002  1.085298386632696E-003  -33.7039533691194     
 -1.856877498642976E-002  1.159186911129770E-003  -36.6332526393027     
 -1.670217298913568E-002  1.158438715819409E-003  -33.7228960895910     
 -1.480879070562018E-002  1.138640446322984E-003  -25.7018748690322     
 -1.289364449341437E-002  1.104409404940434E-003  -14.7588818889015     
 -1.091887926427126E-002  1.061828833423978E-003  -4.54230014507698     
 -9.205678528702018E-003  5.454290481155861E-004 -0.459604051940651     
 -9.241398677704833E-003  6.129985172186701E-007 -0.626810395465039     
 -9.205770271164499E-003 -5.442031443108552E-004 -0.459603939299205     
 -1.091906477312550E-002 -1.060700364631255E-003  -4.54230019116759     
 -1.289383218170228E-002 -1.103380487509652E-003  -14.7588819343820     
 -1.480897645713263E-002 -1.137710832982532E-003  -25.7018749129756     
 -1.670235314762643E-002 -1.157606428564100E-003  -33.7228961326897     
 -1.856894589606867E-002 -1.158448242286579E-003  -36.6332526810518     
 -2.038942308915863E-002 -1.084647796664274E-003  -33.7039534098488     
 -2.220676516230696E-002 -7.752558363036803E-004  -25.6660851119044     
 -2.437273461457882E-002  2.055930612228153E-005  -14.7103711661607     
 -2.813339111499583E-002  1.127729120277027E-003  -4.48738517793841     
 -7.274475147573977E-003  1.124056054439324E-003  -4.53625443366763     
 -5.605865157204307E-003  1.085311672507109E-003  -14.7511150573408     
 -3.880134826778944E-003  1.059028368714832E-003  -25.6956715281327     
 -2.145863432619393E-003  1.051789340960761E-003  -33.7206160530485     
 -4.240074681197554E-004  1.048280397527085E-003  -36.6361347951543     
  1.274266329731545E-003  1.014506360047644E-003  -33.7123236143686     
  2.969665080187734E-003  8.737204591766076E-004  -25.6790426978704     
  4.823713707480693E-003  5.106188052225872E-004  -14.7260924316966     
  7.405741697678640E-003  5.082347936400796E-006  -4.50268660880284     
  6.691991674329454E-003  1.991630653143572E-004 -0.504524150641621     
  6.241903224439204E-003  9.996628805417434E-007 -0.719061518803824     
  6.691963315837828E-003 -1.971651263373319E-004 -0.504523971939594     
  7.405669177057214E-003 -3.122643189387287E-006  -4.50268664836417     
  4.823613668219591E-003 -5.087090363556120E-004  -14.7260924730640     
  2.969542277416195E-003 -8.718724344680133E-004  -25.6790427393657     
  1.274124388840861E-003 -1.012730322264812E-003  -33.7123236573372     
 -4.241649273540535E-004 -1.046585019157958E-003  -36.6361348385058     
 -2.146032778745905E-003 -1.050181474024275E-003  -33.7206160976407     
 -3.880312430097146E-003 -1.057513046303311E-003  -25.6956715733297     
 -5.606047386627583E-003 -1.083892210738866E-003  -14.7511151035706     
 -7.274657911143928E-003 -1.122734053189188E-003  -4.53625448066445     
  8.725152030438247E-003  7.888223912554948E-004  -4.49291199608964     
  7.462707198411343E-003  2.830308630049715E-004  -14.7060771805203     
  6.928284940905756E-003 -8.034303813225686E-005  -25.6484967748356     
  6.552824507036651E-003 -2.214827426159523E-004  -33.6711714045165     
  6.175498653469699E-003 -2.552072646733839E-004  -36.5844349967483     
  5.776399568088005E-003 -2.559140340198039E-004  -33.6586422733621     
  5.364989072168458E-003 -2.513726001456929E-004  -25.6237746981200     
  4.948686367912326E-003 -2.474083652951600E-004  -14.6698476735499     
  4.528426431983871E-003 -2.443037239142040E-004  -4.44617256723705     
  4.122351603422346E-003 -1.222436392918782E-004 -0.499568931746188     
  4.124246459512843E-003  9.431939014703870E-007 -0.741496232553943     
  4.122445507302396E-003  1.241259425714442E-004 -0.499568723809615     
  4.528566591268814E-003  2.462496035756773E-004  -4.44617264678037     
  4.948790899951363E-003  2.494093838186474E-004  -14.6698477501020     
  5.365061707381612E-003  2.534118445593076E-004  -25.6237747688822     
  5.776444162238902E-003  2.579764739290431E-004  -33.6586423406782     
  6.175519025505258E-003  2.572798471215781E-004  -36.5844350586152     
  6.552824470910753E-003  2.235543103088134E-004  -33.6711714626332     
  6.928268296890515E-003  8.240434786093943E-005  -25.6484968277870     
  7.462677746270452E-003 -2.809874000524438E-004  -14.7060772294642     
  8.725114693439022E-003 -7.868026975478595E-004  -4.49291204004906     
  3.704743686348103E-003 -2.476490622298738E-004  -4.43742331907644     
  3.301541475963498E-003 -2.456496835585699E-004  -14.6501801252243     
  2.895300034160646E-003 -2.441065912153940E-004  -25.5916474556829     
  2.488460304974503E-003 -2.430932686974029E-004  -33.6131447716658     
  2.081259510494491E-003 -2.415090818462300E-004  -36.5252667817908     
  1.671731139958844E-003 -2.386825519197454E-004  -33.5986614076448     
  1.254385640861580E-003 -2.372203172323697E-004  -25.5635590067887     
  8.208312298863918E-004 -2.565045181283225E-004  -14.6102467189312     
  3.771289354580725E-004 -3.205946076435678E-004  -4.38827593322894     
 -2.101833389975258E-006 -2.957030823250678E-004 -0.461531818115961     
 -1.622680552528083E-006 -1.515445295112277E-007 -0.712441931468882     
 -8.728461416796267E-007  2.954001559229069E-004 -0.461531518506637     
  3.778411821072771E-004  3.203609577875456E-004  -4.38827591287737     
  8.215661147169992E-004  2.567273996501994E-004  -14.6102467131825     
  1.255032002212396E-003  2.378000771790758E-004  -25.5635590101026     
  1.672291317013434E-003  2.395546521397778E-004  -33.5986614247118     
  2.081741124444236E-003  2.426318367987952E-004  -36.5252668085974     
  2.488869643776512E-003  2.444291940432848E-004  -33.6131448116115     
  2.895643052074097E-003  2.456211124786731E-004  -25.5916475059444     
  3.301824079037143E-003  2.473111380590046E-004  -14.6501801880942     
  3.704971585546240E-003  2.494288552797818E-004  -4.43742339267703     
 -3.814196453498038E-004 -3.212927837501101E-004  -4.38827289440401     
 -8.275552421936113E-004 -2.592118297516260E-004  -14.6102433092510     
 -1.262860004947961E-003 -2.423556333496044E-004  -25.5635572181366     
 -1.681723789044735E-003 -2.465715772325405E-004  -33.5986625098785     
 -2.092635626105455E-003 -2.525019775713821E-004  -36.5252714257601     
 -2.501096127781556E-003 -2.575165982990734E-004  -33.6131528906124     
 -2.909065136986437E-003 -2.622372668294285E-004  -25.5916584431411     
 -3.316295288754850E-003 -2.677045599761152E-004  -14.6501926839471     
 -3.720317815652174E-003 -2.737750406538527E-004  -4.43743571469420     
 -4.134789579245830E-003 -1.522454842896373E-004 -0.499752770005343     
 -4.132803685010136E-003 -2.884920201417457E-005 -0.741732233081694     
 -4.127093201282936E-003  9.453100470052540E-005 -0.499754373075415     
 -3.705030804432409E-003  2.241452882105383E-004  -4.43743911857250     
 -3.301463609141215E-003  2.260679733225075E-004  -14.6501957055020     
 -2.894985441857681E-003  2.282819149229339E-004  -25.5916610831449     
 -2.488050163846139E-003  2.307930127743652E-004  -33.6131551495684     
 -2.080905065086423E-003  2.324228750574302E-004  -36.5252733017704     
 -1.671590114644777E-003  2.324089176008162E-004  -33.5986640062763     
 -1.254603556100760E-003  2.332385460088083E-004  -25.5635583301165     
 -8.214515548656752E-004  2.541569830482723E-004  -14.6102440431581     
 -3.778478160580383E-004  3.191914464256759E-004  -4.38827324216936     
 -4.545555932185730E-003 -2.786866168122639E-004  -4.44618150485460     
 -4.966546421536883E-003 -2.860117354143779E-004  -14.6698600904295     
 -5.383406943677231E-003 -2.941449394669156E-004  -25.6237938830970     
 -5.795224041230358E-003 -3.027324538755324E-004  -33.6586701229100     
 -6.194573518431667E-003 -3.058758494595857E-004  -36.5844724798186     
 -6.571982548383650E-003 -2.757024732815190E-004  -33.6712182226093     
 -6.947384609525776E-003 -1.376523418459533E-004  -25.6485519161920     
 -7.481807007265134E-003  2.232872559213411E-004  -14.7061385227510     
 -8.744933603561522E-003  7.272515004846558E-004  -4.49297695365200     
 -6.707599521157202E-003  1.350847658979101E-004 -0.504942885611206     
 -6.255024824340903E-003 -6.327008316201408E-005 -0.719575216887237     
 -6.703718981078943E-003 -2.616057866555895E-004 -0.504945185413688     
 -8.737363168150483E-003 -8.500915271226217E-004  -4.49298195320902     
 -7.472066586283274E-003 -3.411942679002907E-004  -14.7061433894893     
 -6.935928839252997E-003  2.553512766826832E-005  -25.6485566455418     
 -6.559095246198794E-003  1.701263302622347E-004  -33.6712228186252     
 -6.180538150755928E-003  2.074871322888161E-004  -36.5844769387812     
 -5.780326014361450E-003  2.120339958731872E-004  -33.6586744482635     
 -5.367932041552949E-003  2.114966121730436E-004  -25.6237980716358     
 -4.950780373284971E-003  2.116336338735134E-004  -14.6698641451696     
 -4.529799228034949E-003  2.126589956184683E-004  -4.44618542283137     
 -7.423995460839532E-003 -6.098935946944987E-005  -4.50275491723151     
 -4.839762998294038E-003  4.429347084137075E-004  -14.7261713969714     
 -2.984191338825229E-003  8.039533744979104E-004  -25.6791377727079     
 -1.287327181272489E-003  9.421386646824449E-004  -33.7124377875292     
  4.125547068798223E-004  9.729897718748232E-004  -36.6362694690360     
  2.136187737705947E-003  9.734186862373043E-004  -33.7207704909733     
  3.872392087688306E-003  9.775308343468727E-004  -25.6958438427168     
  5.600190561393270E-003  1.000723851255844E-003  -14.7513016052885     
  7.270974713807053E-003  1.036476451635296E-003  -4.53645092176273     
  9.207196923698903E-003  4.543021852565729E-004 -0.460351585807469     
  9.245503634823420E-003 -9.115373422168036E-005 -0.627673233513167     
  9.212398052859496E-003 -6.365583842830850E-004 -0.460354516321929     
  7.282047478464078E-003 -1.212812767268554E-003  -4.53645707789732     
  5.611799674493777E-003 -1.170909957773566E-003  -14.7513076533879     
  3.884224692274442E-003 -1.141396258427188E-003  -25.6958497722984     
  2.147959288047412E-003 -1.130928493257855E-003  -33.7207763112823     
  4.239810561546975E-004 -1.124245521233017E-003  -36.6362751717898     
 -1.276529961138521E-003 -1.087384069372447E-003  -33.7124433801598     
 -2.974305276461932E-003 -9.435749386820735E-004  -25.6791432485569     
 -4.831070524169137E-003 -5.774231884333971E-004  -14.7261767620121     
 -7.416949873549425E-003 -6.896150095937174E-005  -4.50276016597769     
  1.092002845107280E-002  9.686350072915236E-004  -4.54251050259957     
  1.289728346113205E-002  1.008637851443925E-003  -14.7591145759346     
  1.481504404094128E-002  1.040476798988748E-003  -25.7021386030600     
  1.671123376532693E-002  1.058134673421867E-003  -33.7231948449221     
  1.858095149515419E-002  1.057154517669419E-003  -36.6335870248320     
  2.040499043020710E-002  9.823892674652888E-004  -33.7043199746749     
  2.222607778506585E-002  6.739238144880867E-004  -25.6664779466410     
  2.439392486905635E-002 -1.175331329155477E-004  -14.7107811377261     
  2.814740393003815E-002 -1.217865065664169E-003  -4.48780155929279     
  2.472181560638870E-002 -2.325540146957703E-004 -0.280734766621462     
  2.374069631878597E-002 -1.038962498546577E-004 -0.377981402491443     
  2.471949736465692E-002  2.489605092499653E-005 -0.280746943627270     
  2.814316863217763E-002  1.007969376919405E-003  -4.48782426644582     
  2.439269682623365E-002 -9.306802554583159E-005  -14.7108020026272     
  2.222735597451548E-002 -8.839878310923394E-004  -25.6664969971968     
  2.040846937145968E-002 -1.190778208931509E-003  -33.7043371923124     
  1.858632941371922E-002 -1.262842760824130E-003  -36.6336024189726     
  1.671820669361510E-002 -1.260248474984576E-003  -33.7232084152051     
  1.482330772201300E-002 -1.238294918323413E-003  -25.7021503407940     
  1.290653393250588E-002 -1.201584993996678E-003  -14.7591244989609     
  1.092993413490671E-002 -1.156282636607313E-003  -4.54251858359831     
  2.727995722611001E-002  4.911623009164267E-004  -4.48608960598721     
  2.266007895878144E-002 -6.096212357875030E-004  -14.6949781192140     
  1.962540102144647E-002 -1.400556090545625E-003  -25.6277085140078     
  1.693689422607090E-002 -1.708794000340697E-003  -33.6369517212414     
  1.424622678499347E-002 -1.785890858163576E-003  -36.5356413332431     
  1.151668257879836E-002 -1.793393926043442E-003  -33.5958935578563     
  8.784002693093332E-003 -1.779039113010425E-003  -25.5505449335949     
  6.080447590208637E-003 -1.697255210691188E-003  -14.5914817638309     
  3.360284768816095E-003 -1.435812876293745E-003  -4.37116319108528     
  6.158687767290917E-004 -2.393273831057027E-004 -2.090392916628334E-003
  7.197226026276350E-004 -8.971283389640791E-005 -2.026437978433094E-003
  6.080272459204064E-004  5.991507731463187E-005 -2.105032860236961E-003
  3.347797859423534E-003  1.250792542407896E-003  -4.37119194101847     
  6.070504682655636E-003  1.507407527819381E-003  -14.5915100337409     
  8.776121169911735E-003  1.585523748041083E-003  -25.5505727420658     
  1.151037907386056E-002  1.597116540096155E-003  -33.5959208884738     
  1.424100915453866E-002  1.587519757291958E-003  -36.5356682004224     
  1.693227091980362E-002  1.508748945011298E-003  -33.6369781124125     
  1.962088263651061E-002  1.199009358484307E-003  -25.6277344400345     
  2.265517898727214E-002  4.065446163010222E-004  -14.6950035708117     
  2.727400009107992E-002 -6.960062571900264E-004  -4.48611459099060     
 -2.723337650778070E-002 -5.888706338319421E-004  -4.48569080522938     
 -2.257351109489795E-002  5.191460953570664E-004  -14.6945933942063     
 -1.950771731363174E-002  1.315403972914756E-003  -25.6273415590167     
 -1.678963208934327E-002  1.626325414288491E-003  -33.6366074970253     
 -1.406880573739893E-002  1.705726810334978E-003  -36.5353240493921     
 -1.130919985478275E-002  1.717722064107448E-003  -33.5956072376436     
 -8.551172482373099E-003  1.712039134512910E-003  -25.5502912303445     
 -5.839767172075299E-003  1.635688996190310E-003  -14.5912604721405     
 -3.150203412747587E-003  1.356158828418469E-003  -4.37096988322990     
 -2.691541593600098E-004  6.682228254248209E-005 -8.973933214522707E-004
 -3.132959700503779E-004 -8.429825200746202E-010 -8.656852249208303E-004
 -2.691535216236874E-004 -6.682414333921418E-005 -8.973924721584842E-004
 -3.150178112031717E-003 -1.356143469921325E-003  -4.37096987564917     
 -5.839722563715453E-003 -1.635650438682500E-003  -14.5912604617085     
 -8.551112085483602E-003 -1.711968508568099E-003  -25.5502912165326     
 -1.130912722443959E-002 -1.717612395631766E-003  -33.5956072208211     
 -1.406872450679674E-002 -1.705572870145937E-003  -36.5353240293459     
 -1.678954588645536E-002 -1.626123812471276E-003  -33.6366074738141     
 -1.950762974807324E-002 -1.315153138957237E-003  -25.6273415327354     
 -2.257342578003114E-002 -5.188459190364309E-004  -14.6945933646014     
 -2.723329866040662E-002  5.892187992809540E-004  -4.48569077273482     
 -2.568351205413659E-002  1.487338354666643E-003  -4.67232416090195     
 -2.385368096110242E-002  2.165436486583576E-007  -4.77629493201814     
 -2.568346359126241E-002 -1.486906410118768E-003  -4.67232421826023     
 -2.428792262715531E-002  3.924818108418285E-004  -14.9063992113421     
 -2.380852106689865E-002  2.459517765643066E-007  -15.0183098706253     
 -2.428786413261435E-002 -3.919883958212518E-004  -14.9063992744551     
 -2.246550511980284E-002 -2.913145957168925E-004  -25.8729237255043     
 -2.245141221464194E-002  2.821706731589255E-007  -25.9932200434558     
 -2.246543654853779E-002  2.918803133121756E-004  -25.8729237944212     
 -2.054799009548142E-002 -5.380996198521476E-004  -33.9221916589055     
 -2.060428242286897E-002  3.230776304832892E-007  -34.0504410517451     
 -2.054791320654461E-002  5.387468917840684E-004  -33.9221917336918     
 -1.862432996225863E-002 -5.895529934970550E-004  -36.8636550436452     
 -1.865759125292086E-002  3.676721637672211E-007  -36.9993448188450     
 -1.862424661302602E-002  5.902891686828182E-004  -36.8636551245532     
 -1.670870898950642E-002 -5.848656129010050E-004  -33.9665525273843     
 -1.671901880701088E-002  4.150330533531036E-007  -34.1087234621772     
 -1.670862101817411E-002  5.856962320813727E-004  -33.9665526142932     
 -1.479886540121337E-002 -5.675104694658331E-004  -25.9595594942242     
 -1.480186444856183E-002  4.642471916118453E-007  -26.1077626151141     
 -1.479877464665520E-002  5.684392464924044E-004  -25.9595595876108     
 -1.289456421524116E-002 -5.380958250017120E-004  -15.0311541249873     
 -1.291162751938775E-002  5.143748933969187E-007  -15.1849174942627     
 -1.289447248814392E-002  5.391246222069591E-004  -15.0311542245279     
 -1.100617583557756E-002 -4.961434707102400E-004  -4.82891047368757     
 -1.107225807190461E-002  5.641528285702296E-007  -4.98887215977241     
 -1.100608442886245E-002  4.972723928958775E-004  -4.82891058012652     
 -7.364735926617154E-003 -5.941819320008842E-004  -4.84432718361996     
 -7.431194899141126E-003  6.614911132877953E-007  -5.01575546106661     
 -7.364645871943475E-003  5.955040983745583E-004  -4.84432730227368     
 -5.610324704413522E-003 -5.557151658566170E-004  -15.0662961691953     
 -5.627899413888231E-003  7.102209264776117E-007  -15.2429715762237     
 -5.610235690438514E-003  5.571353556676542E-004  -15.0662962936645     
 -3.871247455642383E-003 -5.329711585990419E-004  -26.0177294892869     
 -3.870594393870762E-003  7.586223995863769E-007  -26.2003953888931     
 -3.871160760192074E-003  5.344879199990668E-004  -26.0177296201103     
 -2.134670693201884E-003 -5.277856984291891E-004  -34.0500744043901     