# vtk DataFile Version 3.0
 Bridge                                                                         
  
ASCII
DATASET UNSTRUCTURED_GRID
 POINTS        4085 double
   200.000000000000       -10.0000000000000       0.000000000000000E+000
   200.000000000000        10.0000000000000       0.000000000000000E+000
   150.000000000000        10.0000000000000       0.000000000000000E+000
   150.000000000000       -10.0000000000000       0.000000000000000E+000
   100.000000000000        10.0000000000000       0.000000000000000E+000
   100.000000000000       -10.0000000000000       0.000000000000000E+000
   50.0000000000000        10.0000000000000       0.000000000000000E+000
   50.0000000000000       -10.0000000000000       0.000000000000000E+000
  0.000000000000000E+000   10.0000000000000       0.000000000000000E+000
  0.000000000000000E+000  -10.0000000000000       0.000000000000000E+000
  -50.0000000000000        10.0000000000000       0.000000000000000E+000
  -50.0000000000000       -10.0000000000000       0.000000000000000E+000
  -100.000000000000        10.0000000000000       0.000000000000000E+000
  -100.000000000000       -10.0000000000000       0.000000000000000E+000
  -150.000000000000        10.0000000000000       0.000000000000000E+000
  -150.000000000000       -10.0000000000000       0.000000000000000E+000
  -200.000000000000        10.0000000000000       0.000000000000000E+000
  -200.000000000000       -10.0000000000000       0.000000000000000E+000
  -250.000000000000        10.0000000000000       0.000000000000000E+000
  -250.000000000000       -10.0000000000000       0.000000000000000E+000
   250.000000000000       -10.0000000000000       0.000000000000000E+000
   250.000000000000        10.0000000000000       0.000000000000000E+000
   200.000000000000       -5.00000000000000       0.000000000000000E+000
   200.000000000000       0.000000000000000E+000  0.000000000000000E+000
   200.000000000000        5.00000000000000       0.000000000000000E+000
   195.000000000000        10.0000000000000       0.000000000000000E+000
   190.000000000000        10.0000000000000       0.000000000000000E+000
   185.000000000000        10.0000000000000       0.000000000000000E+000
   180.000000000000        10.0000000000000       0.000000000000000E+000
   175.000000000000        10.0000000000000       0.000000000000000E+000
   170.000000000000        10.0000000000000       0.000000000000000E+000
   165.000000000000        10.0000000000000       0.000000000000000E+000
   160.000000000000        10.0000000000000       0.000000000000000E+000
   155.000000000000        10.0000000000000       0.000000000000000E+000
   150.000000000000        5.00000000000000       0.000000000000000E+000
   150.000000000000       0.000000000000000E+000  0.000000000000000E+000
   150.000000000000       -5.00000000000000       0.000000000000000E+000
   155.000000000000       -10.0000000000000       0.000000000000000E+000
   160.000000000000       -10.0000000000000       0.000000000000000E+000
   165.000000000000       -10.0000000000000       0.000000000000000E+000
   170.000000000000       -10.0000000000000       0.000000000000000E+000
   175.000000000000       -10.0000000000000       0.000000000000000E+000
   180.000000000000       -10.0000000000000       0.000000000000000E+000
   185.000000000000       -10.0000000000000       0.000000000000000E+000
   190.000000000000       -10.0000000000000       0.000000000000000E+000
   195.000000000000       -10.0000000000000       0.000000000000000E+000
   145.000000000000        10.0000000000000       0.000000000000000E+000
   140.000000000000        10.0000000000000       0.000000000000000E+000
   135.000000000000        10.0000000000000       0.000000000000000E+000
   130.000000000000        10.0000000000000       0.000000000000000E+000
   125.000000000000        10.0000000000000       0.000000000000000E+000
   120.000000000000        10.0000000000000       0.000000000000000E+000
   115.000000000000        10.0000000000000       0.000000000000000E+000
   110.000000000000        10.0000000000000       0.000000000000000E+000
   105.000000000000        10.0000000000000       0.000000000000000E+000
   100.000000000000        5.00000000000000       0.000000000000000E+000
   100.000000000000       0.000000000000000E+000  0.000000000000000E+000
   100.000000000000       -5.00000000000000       0.000000000000000E+000
   105.000000000000       -10.0000000000000       0.000000000000000E+000
   110.000000000000       -10.0000000000000       0.000000000000000E+000
   115.000000000000       -10.0000000000000       0.000000000000000E+000
   120.000000000000       -10.0000000000000       0.000000000000000E+000
   125.000000000000       -10.0000000000000       0.000000000000000E+000
   130.000000000000       -10.0000000000000       0.000000000000000E+000
   135.000000000000       -10.0000000000000       0.000000000000000E+000
   140.000000000000       -10.0000000000000       0.000000000000000E+000
   145.000000000000       -10.0000000000000       0.000000000000000E+000
   95.0000000000000        10.0000000000000       0.000000000000000E+000
   90.0000000000000        10.0000000000000       0.000000000000000E+000
   85.0000000000000        10.0000000000000       0.000000000000000E+000
   80.0000000000000        10.0000000000000       0.000000000000000E+000
   75.0000000000000        10.0000000000000       0.000000000000000E+000
   70.0000000000000        10.0000000000000       0.000000000000000E+000
   65.0000000000000        10.0000000000000       0.000000000000000E+000
   60.0000000000000        10.0000000000000       0.000000000000000E+000
   55.0000000000000        10.0000000000000       0.000000000000000E+000
   50.0000000000000        5.00000000000000       0.000000000000000E+000
   50.0000000000000       0.000000000000000E+000  0.000000000000000E+000
   50.0000000000000       -5.00000000000000       0.000000000000000E+000
   55.0000000000000       -10.0000000000000       0.000000000000000E+000
   60.0000000000000       -10.0000000000000       0.000000000000000E+000
   65.0000000000000       -10.0000000000000       0.000000000000000E+000
   70.0000000000000       -10.0000000000000       0.000000000000000E+000
   75.0000000000000       -10.0000000000000       0.000000000000000E+000
   80.0000000000000       -10.0000000000000       0.000000000000000E+000
   85.0000000000000       -10.0000000000000       0.000000000000000E+000
   90.0000000000000       -10.0000000000000       0.000000000000000E+000
   95.0000000000000       -10.0000000000000       0.000000000000000E+000
   45.0000000000000        10.0000000000000       0.000000000000000E+000
   40.0000000000000        10.0000000000000       0.000000000000000E+000
   35.0000000000000        10.0000000000000       0.000000000000000E+000
   30.0000000000000        10.0000000000000       0.000000000000000E+000
   25.0000000000000        10.0000000000000       0.000000000000000E+000
   20.0000000000000        10.0000000000000       0.000000000000000E+000
   15.0000000000000        10.0000000000000       0.000000000000000E+000
   10.0000000000000        10.0000000000000       0.000000000000000E+000
   5.00000000000000        10.0000000000000       0.000000000000000E+000
  0.000000000000000E+000   5.00000000000000       0.000000000000000E+000
  0.000000000000000E+000  0.000000000000000E+000  0.000000000000000E+000
  0.000000000000000E+000  -5.00000000000000       0.000000000000000E+000
   5.00000000000000       -10.0000000000000       0.000000000000000E+000
   10.0000000000000       -10.0000000000000       0.000000000000000E+000
   15.0000000000000       -10.0000000000000       0.000000000000000E+000
   20.0000000000000       -10.0000000000000       0.000000000000000E+000
   25.0000000000000       -10.0000000000000       0.000000000000000E+000
   30.0000000000000       -10.0000000000000       0.000000000000000E+000
   35.0000000000000       -10.0000000000000       0.000000000000000E+000
   40.0000000000000       -10.0000000000000       0.000000000000000E+000
   45.0000000000000       -10.0000000000000       0.000000000000000E+000
  -5.00000000000000        10.0000000000000       0.000000000000000E+000
  -10.0000000000000        10.0000000000000       0.000000000000000E+000
  -15.0000000000000        10.0000000000000       0.000000000000000E+000
  -20.0000000000000        10.0000000000000       0.000000000000000E+000
  -25.0000000000000        10.0000000000000       0.000000000000000E+000
  -30.0000000000000        10.0000000000000       0.000000000000000E+000
  -35.0000000000000        10.0000000000000       0.000000000000000E+000
  -40.0000000000000        10.0000000000000       0.000000000000000E+000
  -45.0000000000000        10.0000000000000       0.000000000000000E+000
  -50.0000000000000        5.00000000000000       0.000000000000000E+000
  -50.0000000000000       0.000000000000000E+000  0.000000000000000E+000
  -50.0000000000000       -5.00000000000000       0.000000000000000E+000
  -45.0000000000000       -10.0000000000000       0.000000000000000E+000
  -40.0000000000000       -10.0000000000000       0.000000000000000E+000
  -35.0000000000000       -10.0000000000000       0.000000000000000E+000
  -30.0000000000000       -10.0000000000000       0.000000000000000E+000
  -25.0000000000000       -10.0000000000000       0.000000000000000E+000
  -20.0000000000000       -10.0000000000000       0.000000000000000E+000
  -15.0000000000000       -10.0000000000000       0.000000000000000E+000
  -10.0000000000000       -10.0000000000000       0.000000000000000E+000
  -5.00000000000000       -10.0000000000000       0.000000000000000E+000
  -55.0000000000000        10.0000000000000       0.000000000000000E+000
  -60.0000000000000        10.0000000000000       0.000000000000000E+000
  -65.0000000000000        10.0000000000000       0.000000000000000E+000
  -70.0000000000000        10.0000000000000       0.000000000000000E+000
[...]
 CELL_DATA        2884
 POINT_DATA        4085
 FIELD Result            2
 Displacement_Load_Case01            3        4085 double
 -3.683713787698836E-002  2.664293659371855E-004 -0.106656978342020     
 -3.683707989472228E-002 -2.660393346143588E-004 -0.106656942235772     
 -8.764182161896750E-003  1.089374219398506E-003 -0.159665852203776     
 -8.764359307365088E-003 -1.088148589403461E-003 -0.159665900289455     
  1.224482065022671E-002  3.974980515618767E-004 -0.117399547911947     
  1.224478542804377E-002 -3.955043025560059E-004 -0.117399588033044     
  4.098371454639862E-003 -2.453075002336997E-004 -6.149929717085861E-002
  4.098549940331354E-003  2.471771891171329E-004 -6.149938346679149E-002
  1.158525334937403E-007 -7.267365252772087E-004 -6.650474735845913E-003
  2.490016806951310E-007  7.264829096316701E-004 -6.650446892181904E-003
 -4.114515164241215E-003 -2.755296479468857E-004 -6.150915463440650E-002
 -4.099135388167655E-003  2.177676412772290E-004 -6.151293936771170E-002
 -1.226748570907212E-002  3.336271493337485E-004 -0.117464618312550     
 -1.226330594439412E-002 -4.600909757236271E-004 -0.117469756556274     
  8.762915616493394E-003  9.989417984198137E-004 -0.159866683099495     
  8.773016686427984E-003 -1.181040775915195E-003 -0.159872960071786     
  3.681572000634632E-002 -3.599734374265941E-004 -0.107066835369795     
  3.680714123555691E-002  1.527508894666179E-004 -0.107091347208443     
  2.626971669178111E-004 -5.553390898186496E-004 -3.422840859726799E-004
  2.470598205182494E-004  3.759833874529046E-004 -3.714931003404672E-004
 -1.300585251464404E-004  1.968678207187447E-004 -1.687351709854268E-004
 -1.300570166176155E-004 -1.968700960147566E-004 -1.687311339907653E-004
 -2.467530686121251E-002  1.338046160774345E-004 -0.279558141830765     
 -2.368956319968333E-002  1.936902906360319E-007 -0.376712765038867     
 -2.467526162807580E-002 -1.334165715607771E-004 -0.279558193609243     
 -2.813329526904991E-002 -1.127292610530494E-003  -4.48738514032555     
 -2.437261333884256E-002 -2.006127245126065E-005  -14.7103711271240     
 -2.220662370100869E-002  7.758257235753609E-004  -25.6660850713115     
 -2.038926508414347E-002  1.085298387220749E-003  -33.7039533677776     
 -1.856877498619932E-002  1.159186911757865E-003  -36.6332526377704     
 -1.670217298893030E-002  1.158438716480557E-003  -33.7228960880157     
 -1.480879070543938E-002  1.138640447010187E-003  -25.7018748676176     
 -1.289364449325769E-002  1.104409405647047E-003  -14.7588818878816     
 -1.091887926413877E-002  1.061828834143640E-003  -4.54230014459909     
 -9.205678528593881E-003  5.454290488467933E-004 -0.459604051936968     
 -9.241398677601147E-003  6.129992523709439E-007 -0.626810395460482     
 -9.205770271066104E-003 -5.442031435738604E-004 -0.459603939296555     
 -1.091906477303467E-002 -1.060700363900717E-003  -4.54230019069117     
 -1.289383218161267E-002 -1.103380486791183E-003  -14.7588819333641     
 -1.480897645704557E-002 -1.137710832282723E-003  -25.7018749115633     
 -1.670235314754279E-002 -1.157606427889972E-003  -33.7228961311169     
 -1.856894589598931E-002 -1.158448241645467E-003  -36.6332526795222     
 -2.038942308908452E-002 -1.084647796064197E-003  -33.7039534085100     
 -2.220676516223875E-002 -7.752558357540603E-004  -25.6660851108647     
 -2.437273461451485E-002  2.055930661034376E-005  -14.7103711654922     
 -2.813339111492758E-002  1.127729120693603E-003  -4.48738517765948     
 -7.274475147483741E-003  1.124056055166049E-003  -4.53625443415263     
 -5.605865157132755E-003  1.085311673230327E-003  -14.7511150584684     
 -3.880134826726609E-003  1.059028369429041E-003  -25.6956715299077     
 -2.145863432586247E-003  1.051789341660451E-003  -33.7206160552960     
 -4.240074681055999E-004  1.048280398206966E-003  -36.6361347975371     
  1.274266329726963E-003  1.014506360702669E-003  -33.7123236164993     
  2.969665080164594E-003  8.737204598020928E-004  -25.6790426994701     
  4.823713707438597E-003  5.106188058144524E-004  -14.7260924326557     
  7.405741697614660E-003  5.082348490472944E-006  -4.50268660916921     
  6.691991674307314E-003  1.991630658240595E-004 -0.504524150639276     
  6.241903224461480E-003  9.996633919328698E-007 -0.719061518800660     
  6.691963315901337E-003 -1.971651258247066E-004 -0.504523971937338     
  7.405669177162575E-003 -3.122642632249000E-006  -4.50268664873058     
  4.823613668326394E-003 -5.087090357571047E-004  -14.7260924740230     
  2.969542277522220E-003 -8.718724338333204E-004  -25.6790427409652     
  1.274124388945390E-003 -1.012730321599588E-003  -33.7123236594677     
 -4.241649272511624E-004 -1.046585018467637E-003  -36.6361348408885     
 -2.146032778644710E-003 -1.050181473314075E-003  -33.7206160998882     
 -3.880312429997756E-003 -1.057513045578357E-003  -25.6956715751050     
 -5.606047386530296E-003 -1.083892210004241E-003  -14.7511151046986     
 -7.274657911049573E-003 -1.122734052450121E-003  -4.53625448115016     
  8.725152030358565E-003  7.888223917150840E-004  -4.49291199593457     
  7.462707198337830E-003  2.830308634222991E-004  -14.7060771802950     
  6.928284940835475E-003 -8.034303775601334E-005  -25.6484967746037     
  6.552824506969196E-003 -2.214827422797101E-004  -33.6711714043336     
  6.175498653405230E-003 -2.552072643754678E-004  -36.5844349966811     
  5.776399568026741E-003 -2.559140337582058E-004  -33.6586422734626     
  5.364989072110587E-003 -2.513725999182347E-004  -25.6237746983584     
  4.948686367858016E-003 -2.474083650995802E-004  -14.6698476738222     
  4.528426431933348E-003 -2.443037237481816E-004  -4.44617256742634     
  4.122351603400948E-003 -1.222436391535912E-004 -0.499568931742432     
  4.124246459517270E-003  9.431940396793258E-007 -0.741496232548932     
  4.122445507332681E-003  1.241259427103833E-004 -0.499568723806292     
  4.528566591330515E-003  2.462496037430405E-004  -4.44617264696978     
  4.948790900018905E-003  2.494093840155281E-004  -14.6698477503744     
  5.365061707454826E-003  2.534118447880246E-004  -25.6237747691209     
  5.776444162317661E-003  2.579764741918616E-004  -33.6586423407788     
  6.175519025589458E-003  2.572798474207167E-004  -36.5844350585478     
  6.552824471000327E-003  2.235543106465153E-004  -33.6711714624504     
  6.928268296985316E-003  8.240434823964091E-005  -25.6484968275552     
  7.462677746369764E-003 -2.809873996300876E-004  -14.7060772292392     
  8.725114693540632E-003 -7.868026970796598E-004  -4.49291203989414     
  3.704743686304269E-003 -2.476490621160080E-004  -4.43742331865932     
  3.301541475922796E-003 -2.456496834678303E-004  -14.6501801241659     
  2.895300034123471E-003 -2.441065911455090E-004  -25.5916474540104     
  2.488460304941186E-003 -2.430932686459425E-004  -33.6131447696069     
  2.081259510465361E-003 -2.415090818106342E-004  -36.5252667796547     
  1.671731139934270E-003 -2.386825518973186E-004  -33.5986614057149     
  1.254385640842064E-003 -2.372203172202504E-004  -25.5635590052773     
  8.208312298727292E-004 -2.565045181231565E-004  -14.6102467179667     
  3.771289354512904E-004 -3.205946076412092E-004  -4.38827593282415     
 -2.101833394513656E-006 -2.957030823219415E-004 -0.461531818111878     
 -1.622680560070710E-006 -1.515445297490080E-007 -0.712441931462661     
 -8.728461514810598E-007  2.954001559199000E-004 -0.461531518503062     
  3.778411821072635E-004  3.203609577897631E-004  -4.38827591247236     
  8.215661147231661E-004  2.567273996570875E-004  -14.6102467122177     
  1.255032002225366E-003  2.378000771931208E-004  -25.5635590085908     
  1.672291317033360E-003  2.395546521638264E-004  -33.5986614227816     
  2.081741124470949E-003  2.426318368358317E-004  -36.5252668064610     
  2.488869643809708E-003  2.444291940961166E-004  -33.6131448095523     
  2.895643052113440E-003  2.456211125499059E-004  -25.5916475042717     
  3.301824079082300E-003  2.473111381510655E-004  -14.6501801870356     
  3.704971585596864E-003  2.494288553949320E-004  -4.43742339225988     
 -3.814196453452015E-004 -3.212927837425194E-004  -4.38827289471902     
 -8.275552421827858E-004 -2.592118297359799E-004  -14.6102433099140     
 -1.262860004931144E-003 -2.423556333205002E-004  -25.5635572190933     
 -1.681723789022666E-003 -2.465715771852931E-004  -33.5986625109796     
 -2.092635626078844E-003 -2.525019775020474E-004  -36.5252714268221     
 -2.501096127751016E-003 -2.575165982041055E-004  -33.6131528915120     
 -2.909065136952527E-003 -2.622372667055762E-004  -25.5916584438248     
 -3.316295288718091E-003 -2.677045598203873E-004  -14.6501926843850     
 -3.720317815613071E-003 -2.737750404635075E-004  -4.43743571489010     
 -4.134789579242462E-003 -1.522454840624428E-004 -0.499752770000936     
 -4.132803685044382E-003 -2.884920178653684E-005 -0.741732233074559     
 -4.127093201354697E-003  9.453100492952522E-005 -0.499754373071191     
 -3.705030804533536E-003  2.241452884046015E-004  -4.43743911876931     
 -3.301463609234348E-003  2.260679734818497E-004  -14.6501957059412     
 -2.894985441942151E-003  2.282819150503307E-004  -25.5916610838300     
 -2.488050163921392E-003  2.307930128728743E-004  -33.6131551504694     
 -2.080905065151936E-003  2.324228751303625E-004  -36.5252733028336     
 -1.671590114700079E-003  2.324089176517303E-004  -33.5986640073786     
 -1.254603556145481E-003  2.332385460414169E-004  -25.5635583310742     
 -8.214515548995018E-004  2.541569830660171E-004  -14.6102440438220     
 -3.778478160799753E-004  3.191914464318276E-004  -4.38827324248468     
 -4.545555932142491E-003 -2.786866165454635E-004  -4.44618150462377     
 -4.966546421491596E-003 -2.860117351055604E-004  -14.6698600898937     
 -5.383406943630212E-003 -2.941449391135635E-004  -25.6237938822860     
 -5.795224041181921E-003 -3.027324534752719E-004  -33.6586701219576     
 -6.194573518382118E-003 -3.058758490101995E-004  -36.5844724789193     
 -6.571982548333279E-003 -2.757024727808992E-004  -33.6712182219231     
 -6.947384609474928E-003 -1.376523412919909E-004  -25.6485519157812     
 -7.481807007214518E-003  2.232872565307341E-004  -14.7061385225801     
 -8.744933603512644E-003  7.272515011510961E-004  -4.49297695362951     
 -6.707599521165738E-003  1.350847666225900E-004 -0.504942885607424     
 -6.255024824401739E-003 -6.327008243679774E-005 -0.719575216881353     
 -6.703718981194168E-003 -2.616057859305109E-004 -0.504945185410297     
 -8.737363168328172E-003 -8.500915264572056E-004  -4.49298195318734     
 -7.472066586452468E-003 -3.411942672895782E-004  -14.7061433893191     
 -6.935928839415570E-003  2.553512822523514E-005  -25.6485566451314     
 -6.559095246354767E-003  1.701263307665140E-004  -33.6712228179394     
 -6.180538150904958E-003  2.074871327420194E-004  -36.5844769378824     
 -5.780326014503150E-003  2.120339962772608E-004  -33.6586744473115     
 -5.367932041686955E-003  2.114966125301582E-004  -25.6237980708251     
 -4.950780373410917E-003  2.116336341860015E-004  -14.6698641446342     
 -4.529799228152362E-003  2.126589958888198E-004  -4.44618542260105     
 -7.423995460800743E-003 -6.098935869106194E-005  -4.50275491708056     
 -4.839762998263625E-003  4.429347092425954E-004  -14.7261713965120     
 -2.984191338804720E-003  8.039533753712798E-004  -25.6791377718575     
 -1.287327181262618E-003  9.421386655937951E-004  -33.7124377863163     
  4.125547068786876E-004  9.729897728176201E-004  -36.6362694676158     
  2.136187737693486E-003  9.734186872049963E-004  -33.7207704895658     
  3.872392087664188E-003  9.775308353327655E-004  -25.6958438415514     
  5.600190561357199E-003  1.000723852253014E-003  -14.7513016045253     
  7.270974713758978E-003  1.036476452636691E-003  -4.53645092142575     
  9.207196923643468E-003  4.543021862585015E-004 -0.460351585805376     
  9.245503634775332E-003 -9.115373321877161E-005 -0.627673233510608     
  9.212398052819128E-003 -6.365583832819805E-004 -0.460354516320771     
  7.282047478414750E-003 -1.212812766268482E-003  -4.53645707756236     
  5.611799674428067E-003 -1.170909956778151E-003  -14.7513076526270     
  3.884224692193017E-003 -1.141396257443367E-003  -25.6958497711355     
  2.147959287950722E-003 -1.130928492292372E-003  -33.7207763098774     
  4.239810560431285E-004 -1.124245520292453E-003  -36.6362751703719     
 -1.276529961264567E-003 -1.087384068463175E-003  -33.7124433789492     
 -2.974305276602088E-003 -9.435749378101258E-004  -25.6791432477084     
 -4.831070524323407E-003 -5.774231876042441E-004  -14.7261767615543     
 -7.416949873719663E-003 -6.896150017837301E-005  -4.50276016582814     
  1.092002845099719E-002  9.686350082813098E-004  -4.54251050294111     
  1.289728346104007E-002  1.008637852416059E-003  -14.7591145766750     
  1.481504404083225E-002  1.040476799934610E-003  -25.7021386041179     
  1.671123376519988E-002  1.058134674332321E-003  -33.7231948461686     
  1.858095149500808E-002  1.057154518534771E-003  -36.6335870261375     
  2.040499043004091E-002  9.823892682753134E-004  -33.7043199759019     
  2.222607778487857E-002  6.739238152320928E-004  -25.6664779476602     
  2.439392486884677E-002 -1.175331322481902E-004  -14.7107811384366     
  2.814740392980239E-002 -1.217865065084226E-003  -4.48780155963981     
  2.472181560625858E-002 -2.325540142203104E-004 -0.280734766620025     
  2.374069631875014E-002 -1.038962493798074E-004 -0.377981402489947     
  2.471949736471447E-002  2.489605139923301E-005 -0.280746943626480     
  2.814316863233395E-002  1.007969377496102E-003  -4.48782426679422     
  2.439269682636364E-002 -9.306802488068509E-005  -14.7108020033392     
  2.222735597462153E-002 -8.839878303497972E-004  -25.6664969982176     
  2.040846937154268E-002 -1.190778208122658E-003  -33.7043371935411     
  1.858632941378018E-002 -1.262842759959880E-003  -36.6336024202798     
  1.671820669365508E-002 -1.260248474075247E-003  -33.7232084164536     
  1.482330772203305E-002 -1.238294917378801E-003  -25.7021503418538     
  1.290653393250712E-002 -1.201584993026101E-003  -14.7591244997032     
  1.092993413489043E-002 -1.156282635619509E-003  -4.54251858394173     
  2.727995722588069E-002  4.911623012900550E-004  -4.48608960550629     
  2.266007895858445E-002 -6.096212354992297E-004  -14.6949781180513     
  1.962540102127771E-002 -1.400556090330948E-003  -25.6277085121690     
  1.693689422592895E-002 -1.708794000188117E-003  -33.6369517189046     
  1.424622678487708E-002 -1.785890858061643E-003  -36.5356413307234     
  1.151668257870625E-002 -1.793393925981300E-003  -33.5958935555404     
  8.784002693024253E-003 -1.779039112977857E-003  -25.5505449318386     
  6.080447590161358E-003 -1.697255210678663E-003  -14.5914817628396     
  3.360284768789533E-003 -1.435812876292284E-003  -4.37116319079321     
  6.158687767204875E-004 -2.393273831107709E-004 -2.090392916613187E-003
  7.197226026199142E-004 -8.971283390207528E-005 -2.026437978423142E-003
  6.080272459146058E-004  5.991507730822158E-005 -2.105032860228645E-003
  3.347797859432010E-003  1.250792542406705E-003  -4.37119194072659     
  6.070504682677519E-003  1.507407527828699E-003  -14.5915100327501     
  8.776121169948949E-003  1.585523748070079E-003  -25.5505727403102     
  1.151037907391455E-002  1.597116540154549E-003  -33.5959208861588     
  1.424100915461072E-002  1.587519757390101E-003  -36.5356681979039     
  1.693227091989504E-002  1.508748945160153E-003  -33.6369781100773     
  1.962088263662265E-002  1.199009358695551E-003  -25.6277344381974     
  2.265517898740587E-002  4.065446165866057E-004  -14.6950035696504     
  2.727400009123797E-002 -6.960062568180577E-004  -4.48611459051106     
 -2.723337650772101E-002 -5.888706335531727E-004  -4.48569080540753     
 -2.257351109485130E-002  5.191460955658282E-004  -14.6945933945737     
 -1.950771731358979E-002  1.315403973064148E-003  -25.6273415595988     
 -1.678963208930451E-002  1.626325414390219E-003  -33.6366074978506     
 -1.406880573736420E-002  1.705726810398969E-003  -36.5353240504070     
 -1.130919985475315E-002  1.717722064142110E-003  -33.5956072386542     
 -8.551172482349455E-003  1.712039134525921E-003  -25.5502912311303     
 -5.839767172058228E-003  1.635688996189283E-003  -14.5912604725859     
 -3.150203412738030E-003  1.356158828411429E-003  -4.37096988336224     
 -2.691541593602529E-004  6.682228254050878E-005 -8.973933214544574E-004
 -3.132959700483391E-004 -8.429838490125881E-010 -8.656852249170143E-004
 -2.691535216221643E-004 -6.682414333911285E-005 -8.973924721547424E-004
 -3.150178111997732E-003 -1.356143469908020E-003  -4.37096987578146     
 -5.839722563648213E-003 -1.635650438659354E-003  -14.5912604621538     
 -8.551112085382267E-003 -1.711968508529713E-003  -25.5502912173184     
 -1.130912722430304E-002 -1.717612395571571E-003  -33.5956072218315     
 -1.406872450662413E-002 -1.705572870056552E-003  -36.5353240303602     
 -1.678954588624610E-002 -1.626123812345222E-003  -33.6366074746384     
 -1.950762974782654E-002 -1.315153138787690E-003  -25.6273415333163     
 -2.257342577974383E-002 -5.188459188181879E-004  -14.6945933649677     
 -2.723329866006569E-002  5.892187995543637E-004  -4.48569077291175     
 -2.568351205401146E-002  1.487338355084251E-003  -4.67232416062148     
 -2.385368096092053E-002  2.165440753107837E-007  -4.77629493173524     
 -2.568346359099925E-002 -1.486906409679968E-003  -4.67232421797773     
 -2.428792262703057E-002  3.924818113315323E-004  -14.9063992106721     
 -2.380852106671495E-002  2.459522706599013E-007  -15.0183098699529     
 -2.428786413236527E-002 -3.919883953250275E-004  -14.9063992737830     
 -2.246550511967991E-002 -2.913145951661827E-004  -25.8729237244628     
 -2.245141221446523E-002  2.821712237681273E-007  -25.9932200424114     
 -2.246543654830711E-002  2.918803138602395E-004  -25.8729237933772     
 -2.054799009536120E-002 -5.380996192515736E-004  -33.9221916575650     
 -2.060428242270253E-002  3.230782292632571E-007  -34.0504410504016     
 -2.054791320633272E-002  5.387468923786821E-004  -33.9221917323487     
 -1.862432996214152E-002 -5.895529928557474E-004  -36.8636550421137     
 -1.865759125276537E-002  3.676728028742677E-007  -36.9993448173104     
 -1.862424661283260E-002  5.902891693174723E-004  -36.8636551230192     
 -1.670870898939272E-002 -5.848656122268543E-004  -33.9665525258096     
 -1.671901880686629E-002  4.150337252921885E-007  -34.1087234605996     
 -1.670862101799877E-002  5.856962327489509E-004  -33.9665526127163     
 -1.479886540110338E-002 -5.675104687661296E-004  -25.9595594928097     
 -1.480186444842798E-002  4.642478892134870E-007  -26.1077626136967     
 -1.479877464649756E-002  5.684392471858544E-004  -25.9595595861943     
 -1.289456421513516E-002 -5.380958242834438E-004  -15.0311541239673     
 -1.291162751926437E-002  5.143756098135956E-007  -15.1849174932402     
 -1.289447248800359E-002  5.391246229196184E-004  -15.0311542235061     
 -1.100617583547576E-002 -4.961434699801083E-004  -4.82891047320886     
 -1.107225807179113E-002  5.641535573119095E-007  -4.98887215929137     
 -1.100608442873885E-002  4.972723936213665E-004  -4.82891057964645     
 -7.364735926522846E-003 -5.941819312620869E-004  -4.84432718410344     
 -7.431194899046991E-003  6.614918495222884E-007  -5.01575546154880     
 -7.364645871851080E-003  5.955040991063983E-004  -4.84432730275646     
 -5.610324704322701E-003 -5.557151651222569E-004  -15.0662961703207     
 -5.627899413803563E-003  7.102216586095856E-007  -15.2429715773479     
 -5.610235690360411E-003  5.571353563959820E-004  -15.0662962947896     
 -3.871247455554952E-003 -5.329711578743534E-004  -26.0177294910596     
 -3.870594393795005E-003  7.586231223371319E-007  -26.2003953906652     
 -3.871160760127997E-003  5.344879207182925E-004  -26.0177296218828     
 -2.134670693117877E-003 -5.277856977192592E-004  -34.0500744066347     