# vtk DataFile Version 3.0
 Bridge                                                                         
  
ASCII
DATASET UNSTRUCTURED_GRID
 POINTS        4085 double
   200.000000000000       -10.0000000000000       0.000000000000000E+000
   200.000000000000        10.0000000000000       0.000000000000000E+000
   150.000000000000        10.0000000000000       0.000000000000000E+000
   150.000000000000       -10.0000000000000       0.000000000000000E+000
   100.000000000000        10.0000000000000       0.000000000000000E+000
   100.000000000000       -10.0000000000000       0.000000000000000E+000
   50.0000000000000        10.0000000000000       0.000000000000000E+000
   50.0000000000000       -10.0000000000000       0.000000000000000E+000
  0.000000000000000E+000   10.0000000000000       0.000000000000000E+000
  0.000000000000000E+000  -10.0000000000000       0.000000000000000E+000
  -50.0000000000000        10.0000000000000       0.000000000000000E+000
  -50.0000000000000       -10.0000000000000       0.000000000000000E+000
  -100.000000000000        10.0000000000000       0.000000000000000E+000
  -100.000000000000       -10.0000000000000       0.000000000000000E+000
  -150.000000000000        10.0000000000000       0.000000000000000E+000
  -150.000000000000       -10.0000000000000       0.000000000000000E+000
  -200.000000000000        10.0000000000000       0.000000000000000E+000
  -200.000000000000       -10.0000000000000       0.000000000000000E+000
  -250.000000000000        10.0000000000000       0.000000000000000E+000
  -250.000000000000       -10.0000000000000       0.000000000000000E+000
   250.000000000000       -10.0000000000000       0.000000000000000E+000
   250.000000000000        10.0000000000000       0.000000000000000E+000
   200.000000000000       -5.00000000000000       0.000000000000000E+000
   200.000000000000       0.000000000000000E+000  0.000000000000000E+000
   200.000000000000        5.00000000000000       0.000000000000000E+000
   195.000000000000        10.0000000000000       0.000000000000000E+000
   190.000000000000        10.0000000000000       0.000000000000000E+000
   185.000000000000        10.0000000000000       0.000000000000000E+000
   180.000000000000        10.0000000000000       0.000000000000000E+000
   175.000000000000        10.0000000000000       0.000000000000000E+000
   170.000000000000        10.0000000000000       0.000000000000000E+000
   165.000000000000        10.0000000000000       0.000000000000000E+000
   160.000000000000        10.0000000000000       0.000000000000000E+000
   155.000000000000        10.0000000000000       0.000000000000000E+000
   150.000000000000        5.00000000000000       0.000000000000000E+000
   150.000000000000       0.000000000000000E+000  0.000000000000000E+000
   150.000000000000       -5.00000000000000       0.000000000000000E+000
   155.000000000000       -10.0000000000000       0.000000000000000E+000
   160.000000000000       -10.0000000000000       0.000000000000000E+000
   165.000000000000       -10.0000000000000       0.000000000000000E+000
   170.000000000000       -10.0000000000000       0.000000000000000E+000
   175.000000000000       -10.0000000000000       0.000000000000000E+000
   180.000000000000       -10.0000000000000       0.000000000000000E+000
   185.000000000000       -10.0000000000000       0.000000000000000E+000
   190.000000000000       -10.0000000000000       0.000000000000000E+000
   195.000000000000       -10.0000000000000       0.000000000000000E+000
   145.000000000000        10.0000000000000       0.000000000000000E+000
   140.000000000000        10.0000000000000       0.000000000000000E+000
   135.000000000000        10.0000000000000       0.000000000000000E+000
   130.000000000000        10.0000000000000       0.000000000000000E+000
   125.000000000000        10.0000000000000       0.000000000000000E+000
   120.000000000000        10.0000000000000       0.000000000000000E+000
   115.000000000000        10.0000000000000       0.000000000000000E+000
   110.000000000000        10.0000000000000       0.000000000000000E+000
   105.000000000000        10.0000000000000       0.000000000000000E+000
   100.000000000000        5.00000000000000       0.000000000000000E+000
   100.000000000000       0.000000000000000E+000  0.000000000000000E+000
   100.000000000000       -5.00000000000000       0.000000000000000E+000
   105.000000000000       -10.0000000000000       0.000000000000000E+000
   110.000000000000       -10.0000000000000       0.000000000000000E+000
   115.000000000000       -10.0000000000000       0.000000000000000E+000
   120.000000000000       -10.0000000000000       0.000000000000000E+000
   125.000000000000       -10.0000000000000       0.000000000000000E+000
   130.000000000000       -10.0000000000000       0.000000000000000E+000
   135.000000000000       -10.0000000000000       0.000000000000000E+000
   140.000000000000       -10.0000000000000       0.000000000000000E+000
   145.000000000000       -10.0000000000000       0.000000000000000E+000
   95.0000000000000        10.0000000000000       0.000000000000000E+000
   90.0000000000000        10.0000000000000       0.000000000000000E+000
   85.0000000000000        10.0000000000000       0.000000000000000E+000
   80.0000000000000        10.0000000000000       0.000000000000000E+000
   75.0000000000000        10.0000000000000       0.000000000000000E+000
   70.0000000000000        10.0000000000000       0.000000000000000E+000
   65.0000000000000        10.0000000000000       0.000000000000000E+000
   60.0000000000000        10.0000000000000       0.000000000000000E+000
   55.0000000000000        10.0000000000000       0.000000000000000E+000
   50.0000000000000        5.00000000000000       0.000000000000000E+000
   50.0000000000000       0.000000000000000E+000  0.000000000000000E+000
   50.0000000000000       -5.00000000000000       0.000000000000000E+000
   55.0000000000000       -10.0000000000000       0.000000000000000E+000
   60.0000000000000       -10.0000000000000       0.000000000000000E+000
   65.0000000000000       -10.0000000000000       0.000000000000000E+000
   70.0000000000000       -10.0000000000000       0.000000000000000E+000
   75.0000000000000       -10.0000000000000       0.000000000000000E+000
   80.0000000000000       -10.0000000000000       0.000000000000000E+000
   85.0000000000000       -10.0000000000000       0.000000000000000E+000
   90.0000000000000       -10.0000000000000       0.000000000000000E+000
   95.0000000000000       -10.0000000000000       0.000000000000000E+000
   45.0000000000000        10.0000000000000       0.000000000000000E+000
   40.0000000000000        10.0000000000000       0.000000000000000E+000
   35.0000000000000        10.0000000000000       0.000000000000000E+000
   30.0000000000000        10.0000000000000       0.000000000000000E+000
   25.0000000000000        10.0000000000000       0.000000000000000E+000
   20.0000000000000        10.0000000000000       0.000000000000000E+000
   15.0000000000000        10.0000000000000       0.000000000000000E+000
   10.0000000000000        10.0000000000000       0.000000000000000E+000
   5.00000000000000        10.0000000000000       0.000000000000000E+000
  0.000000000000000E+000   5.00000000000000       0.000000000000000E+000
  0.000000000000000E+000  0.000000000000000E+000  0.000000000000000E+000
  0.000000000000000E+000  -5.00000000000000       0.000000000000000E+000
   5.00000000000000       -10.0000000000000       0.000000000000000E+000
   10.0000000000000       -10.0000000000000       0.000000000000000E+000
   15.0000000000000       -10.0000000000000       0.000000000000000E+000
   20.0000000000000       -10.0000000000000       0.000000000000000E+000
   25.0000000000000       -10.0000000000000       0.000000000000000E+000
   30.0000000000000       -10.0000000000000       0.000000000000000E+000
   35.0000000000000       -10.0000000000000       0.000000000000000E+000
   40.0000000000000       -10.0000000000000       0.000000000000000E+000
   45.0000000000000       -10.0000000000000       0.000000000000000E+000
  -5.00000000000000        10.0000000000000       0.000000000000000E+000
  -10.0000000000000        10.0000000000000       0.000000000000000E+000
  -15.0000000000000        10.0000000000000       0.000000000000000E+000
  -20.0000000000000        10.0000000000000       0.000000000000000E+000
  -25.0000000000000        10.0000000000000       0.000000000000000E+000
  -30.0000000000000        10.0000000000000       0.000000000000000E+000
  -35.0000000000000        10.0000000000000       0.000000000000000E+000
  -40.0000000000000        10.0000000000000       0.000000000000000E+000
  -45.0000000000000        10.0000000000000       0.000000000000000E+000
  -50.0000000000000        5.00000000000000       0.000000000000000E+000
  -50.0000000000000       0.000000000000000E+000  0.000000000000000E+000
  -50.0000000000000       -5.00000000000000       0.000000000000000E+000
  -45.0000000000000       -10.0000000000000       0.000000000000000E+000
  -40.0000000000000       -10.0000000000000       0.000000000000000E+000
  -35.0000000000000       -10.0000000000000       0.000000000000000E+000
  -30.0000000000000       -10.0000000000000       0.000000000000000E+000
  -25.0000000000000       -10.0000000000000       0.000000000000000E+000
  -20.0000000000000       -10.0000000000000       0.000000000000000E+000
  -15.0000000000000       -10.0000000000000       0.000000000000000E+000
  -10.0000000000000       -10.0000000000000       0.000000000000000E+000
  -5.00000000000000       -10.0000000000000       0.000000000000000E+000
  -55.0000000000000        10.0000000000000       0.000000000000000E+000
  -60.0000000000000        10.0000000000000       0.000000000000000E+000
  -65.0000000000000        10.0000000000000       0.000000000000000E+000
  -70.0000000000000        10.0000000000000       0.000000000000000E+000
[...]
 CELL_DATA        2884
 POINT_DATA        4085
 FIELD Result            2
 Displacement_Load_Case01            3        4085 double
 -6.183530010639778E-003  7.015914936851717E-005 -7.502606666402195E-002
 -6.183224140943301E-003 -6.908311405915154E-005 -7.502599695580055E-002
 -2.722044048427852E-003  1.331353617095787E-004 -0.108813301439685     
 -2.722439964021337E-003 -1.300541830630041E-004 -0.108813430184239     
 -2.058757440612383E-004  7.663511493995171E-005 -0.100540035204504     
 -2.059611757184417E-004 -7.210715418107949E-005 -0.100540080016554     
 -2.475881348503129E-004  1.948940239174805E-005 -6.191076127848316E-002
 -2.470349666813702E-004 -1.588687941767546E-005 -6.191120149637617E-002
  1.294853395358076E-005 -1.287914957624647E-004 -6.597348176985650E-003
  1.413123224745782E-005  1.272995751084866E-004 -6.597132674284479E-003
  3.473529721385399E-004 -1.248118659375379E-006 -6.206638526196243E-002
  3.606185771243545E-004 -4.363644838511302E-005 -6.207178571615570E-002
  3.585334432883373E-004  1.844461716960778E-005 -0.100784185626241     
  3.730432832550938E-004 -1.391451560747145E-004 -0.100785524712984     
  2.969993193495812E-003  4.081055024478687E-005 -0.109405754760466     
  2.981632910166471E-003 -2.332625660282960E-004 -0.109404660152353     
  6.515593117980296E-003 -1.737321027477024E-004 -7.589554678462138E-002
  6.514040585332572E-003 -5.068459591718769E-005 -7.591474574405066E-002
  9.677568947477506E-004 -1.862601476636850E-004 -1.847844829412223E-003
  9.518329891602818E-004 -2.203811763609895E-006 -1.877358618412388E-003
 -4.402950227467763E-004  4.700509016623762E-005 -8.063263590390594E-004
 -4.402797860179236E-004 -4.698793408451808E-005 -8.063249444459234E-004
 -4.442849384520705E-003  3.535397022538726E-005 -7.798924574591132E-002
 -4.301691274944040E-003  5.351655739596059E-007 -7.972962130094097E-002
 -4.442689881635598E-003 -3.428221246217302E-005 -7.798920227432442E-002
 -4.989282472816998E-003 -1.918903671837868E-004 -8.179792595191128E-002
 -4.502865062082114E-003 -3.328556727274183E-005 -9.380245699316198E-002
 -4.244665370779567E-003  8.070728752561424E-005 -0.105233214740052     
 -4.036307428988095E-003  1.250528771696885E-004 -0.114156592853382     
 -3.827374781245904E-003  1.357286954508756E-004 -0.119759073174251     
 -3.611625524440364E-003  1.360457807283738E-004 -0.121785411349968     
 -3.392017701143698E-003  1.346906481673779E-004 -0.120482660019110     
 -3.170834885603209E-003  1.334673464325850E-004 -0.116595452493676     
 -2.948234601866445E-003  1.324902764685845E-004 -0.111635544044651     
 -2.730986265901200E-003  6.733018192536614E-005 -0.111953496564025     
 -2.731780927870517E-003  1.542277735288243E-006 -0.113798741369143     
 -2.731182671424067E-003 -6.424646978396743E-005 -0.111953576681702     
 -2.948640963732458E-003 -1.296162999934188E-004 -0.111635680630399     
 -3.171247201163937E-003 -1.308046632698829E-004 -0.116595588041853     
 -3.392431793904068E-003 -1.322411425482636E-004 -0.120482788148753     
 -3.612037289419380E-003 -1.338093004146510E-004 -0.121785531200799     
 -3.827780113911243E-003 -1.337030503070522E-004 -0.119759184322621     
 -4.036702226482323E-003 -1.232338246527797E-004 -0.114156695057090     
 -4.245045539091434E-003 -7.908852986764626E-005 -0.105233308499737     
 -4.503226505717958E-003  3.471220664991620E-005 -9.380254343964210E-002
 -4.989620316470065E-003  1.931349466760014E-004 -8.179800409795525E-002
 -2.509253701205395E-003  1.339096273768466E-004 -0.112745819111950     
 -2.292878596323120E-003  1.332862014939730E-004 -0.119782871155089     
 -2.075419304374536E-003  1.330115623970088E-004 -0.126034423209718     
 -1.858075952700864E-003  1.332179059080453E-004 -0.129880179531510     
 -1.641811037088425E-003  1.331706226643912E-004 -0.130561345162350     
 -1.427487913878707E-003  1.303025584434785E-004 -0.127844972652427     
 -1.213352428152870E-003  1.180752743344243E-004 -0.122023781877419     
 -9.853738363912003E-004  8.647314233166642E-005 -0.113924366319091     
 -6.939611142101582E-004  4.245331637646239E-005 -0.105295564134099     
 -6.897433544693550E-004  3.945387941269847E-005 -0.103699209527852     
 -7.289823248140910E-004  2.271125720066943E-006 -0.105555885666421     
 -6.897873874611172E-004 -3.491519873938386E-005 -0.103699238095113     
 -6.940980542555624E-004 -3.798792318404524E-005 -0.105295612464783     
 -9.855563932938110E-004 -8.209450033650156E-005 -0.113924420613918     
 -1.213576154633058E-003 -1.138048614435806E-004 -0.122023845483953     
 -1.427748687047580E-003 -1.261598618555545E-004 -0.127845048508157     
 -1.642104735551081E-003 -1.291731378608524E-004 -0.130561434697201     
 -1.858398451515179E-003 -1.293810645722324E-004 -0.129880283013109     
 -2.075766478383226E-003 -1.293487329572755E-004 -0.126034540249406     
 -2.293246320599538E-003 -1.298087051781903E-004 -0.119783000487623     
 -2.509637780013104E-003 -1.306267373840466E-004 -0.112745953582077     
 -4.461313296804110E-004  1.107922467387774E-004 -0.102724319491767     
 -4.897122371371035E-004  6.673405645131060E-005 -0.106608615033148     
 -4.698585337033641E-004  3.506979789150376E-005 -0.109445892301664     
 -4.361581416528144E-004  2.275587461698264E-005 -0.109813182931085     
 -4.026337690757453E-004  1.978229175189628E-005 -0.106998237469047     
 -3.710304928017516E-004  1.963779524670265E-005 -0.100793116437013     
 -3.405051188505742E-004  1.982697102141434E-005 -9.151866360375975E-002
 -3.102523862459015E-004  1.972346775657686E-005 -8.005610237068661E-002
 -2.796228107035011E-004  1.937688401209868E-005 -6.835457786879819E-002
 -2.508980504886696E-004  1.066004920418858E-005 -6.499620534737768E-002
 -2.510461454835179E-004  1.814307246236958E-006 -6.680956352663431E-002
 -2.506186617786227E-004 -7.037945467460561E-006 -6.499647841447760E-002
 -2.791523315581491E-004 -1.552475357366002E-005 -6.835504024001680E-002
 -3.098606110971027E-004 -1.566242535741703E-005 -8.005654604802724E-002
 -3.401878947582770E-004 -1.559533912021928E-005 -9.151905824054690E-002
 -3.707836434247336E-004 -1.527181282663696E-005 -0.100793454051820     
 -4.024531229841135E-004 -1.531610139573640E-005 -0.106998514305080     
 -4.360395287184598E-004 -1.822153523397029E-005 -0.109813398072001     
 -4.697977876568390E-004 -3.049728146177765E-005 -0.109446049033052     
 -4.897051917570087E-004 -6.215132226111303E-005 -0.106608721025495     
 -4.461734959040256E-004 -1.062252383186435E-004 -0.102724385304298     
 -2.207096880649499E-004  1.959613701635788E-005 -6.223523633745884E-002
 -1.924182161353292E-004  1.910745583409164E-005 -6.274085140203593E-002
 -1.636396209412942E-004  1.870859605822982E-005 -6.198965020550644E-002
 -1.347175608236731E-004  1.854343238516135E-005 -5.891617107846404E-002
 -1.058722708882155E-004  1.875224812937973E-005 -5.302967983833851E-002
 -7.771825232881602E-005  1.947503314308401E-005 -4.438153598466799E-002
 -5.196852577099344E-005  2.006991958091477E-005 -3.364226015114890E-002
 -3.161710062201863E-005  1.492976479842345E-005 -2.203675829420854E-002
 -1.638601121251944E-005 -3.511676979250056E-006 -1.162665843037651E-002
  2.792960326644328E-005 -4.407262800903859E-005 -1.020814620807545E-002
  2.977881018442828E-005 -7.035956800166939E-007 -1.233467272719271E-002
  2.919298287973423E-005  4.263961710070826E-005 -1.020801951282331E-002
 -1.494385476897363E-005  2.626422620375951E-006 -1.162640823097314E-002
 -3.023425294669102E-005 -1.505890007556997E-005 -2.203651981782146E-002
 -5.070479838870385E-005 -1.953258000688071E-005 -3.364209220982743E-002
 -7.657030785092742E-005 -1.834202461766256E-005 -4.438146663292112E-002
 -1.048347209215589E-004 -1.708013330363494E-005 -5.302972285464240E-002
 -1.337857566423964E-004 -1.638614112629181E-005 -5.891633136592423E-002
 -1.628091054959929E-004 -1.611784515486264E-005 -6.198992458875348E-002
 -1.916845396635688E-004 -1.613277438246722E-005 -6.274122763360201E-002
 -2.200684322046595E-004 -1.628481070799478E-005 -6.223567574136474E-002
  6.374739326917365E-005 -6.671869460550481E-006 -1.163591237380785E-002
  8.861615849186704E-005  1.301639293071014E-005 -2.206300078865438E-002
  1.147770498628045E-004  1.832063048861607E-005 -3.368716433789776E-002
  1.455257101414668E-004  1.638672362837173E-005 -4.444552161356193E-002
  1.787385528978663E-004  1.345462186030068E-005 -5.311268024615350E-002
  2.128114556835327E-004  1.059523391259672E-005 -5.901770467698256E-002
  2.470780792487969E-004  7.847227327983723E-006 -6.210874682536498E-002
  2.812709229396430E-004  5.132149797172572E-006 -6.287597004430377E-002
  3.150162557167834E-004  2.329280693011385E-006 -6.238388233338346E-002
  3.542596922941617E-004 -1.176649301167231E-005 -6.515232193090437E-002
  3.578485124441920E-004 -2.234383152158936E-005 -6.696695707361205E-002
  3.608414118073882E-004 -3.297034528210918E-005 -6.515567897409037E-002
  3.275948655883957E-004 -4.058277091955393E-005 -6.238946877589212E-002
  2.930532740338267E-004 -3.712713593371637E-005 -6.288120629449533E-002
  2.579585587637955E-004 -3.400872020776582E-005 -6.211327641380778E-002
  2.226852057068190E-004 -3.140054488248700E-005 -5.902143484771723E-002
  1.875006830669949E-004 -2.943338187883347E-005 -5.311556793346300E-002
  1.530715231449126E-004 -2.812092995102928E-005 -4.444756150813093E-002
  1.210025318715887E-004 -2.644550996708464E-005 -3.368840358790529E-002
  9.341907591135547E-005 -1.820433386111552E-005 -2.206354227185280E-002
  6.696614002091288E-005  3.706333776245250E-006 -1.163592563617922E-002
  3.850554133511718E-004 -4.969211847054444E-006 -6.851450198366937E-002
  4.213565391410644E-004 -8.333229091291796E-006 -8.022351164665231E-002
  4.573166774209315E-004 -1.203922712020759E-005 -9.169378672232932E-002
  4.936017833769659E-004 -1.611371659851323E-005 -0.100975937719352     
  5.310318751113511E-004 -1.989417160675839E-005 -0.107189066493599     
  5.704638929857804E-004 -2.081934068822043E-005 -0.110012818535217     
  6.101244344975637E-004 -1.224803267871201E-005 -0.109655728834033     
  6.357651531696179E-004  1.601306948098601E-005 -0.106830527526240     
  5.970119861476240E-004  5.691795192565456E-005 -0.102959755327377     
  8.536867995712843E-004 -2.096260671528000E-005 -0.103944592105536     
  8.972652817404943E-004 -6.036220791315351E-005 -0.105802262418608     
  8.611482846638381E-004 -9.975582371217229E-005 -0.103945428682629     
  6.119970200456782E-004 -1.700476446913002E-004 -0.102961403794203     
  6.509944362112970E-004 -1.214032916030068E-004 -0.106832635228918     
  6.254713252751366E-004 -8.532784083352439E-005 -0.109658350521636     
  5.858249992730501E-004 -6.891405473765450E-005 -0.110016024059506     
  5.463038494388738E-004 -6.201527471272530E-005 -0.107192886449451     
  5.086810101848257E-004 -5.804222938864955E-005 -0.100980361049542     
  4.720994757008462E-004 -5.448549483942412E-005 -9.169877969440264E-002
  4.357392073125147E-004 -5.073425589490719E-005 -8.022900511754184E-002
  3.989334532944144E-004 -4.686666169702699E-005 -6.852017540164521E-002
  8.597212369859719E-004 -2.001823424315880E-005 -0.105554721344665     
  1.161185113932560E-003  2.094552577254067E-005 -0.114213811929969     
  1.398255614766466E-003  4.930567901633895E-005 -0.122349821981687     
  1.621310448812517E-003  5.801549617046179E-005 -0.128211352958878     
  1.844607181052135E-003  5.727492602635336E-005 -0.130970276395034     
  2.069929711999462E-003  5.375656290904111E-005 -0.130332507225307     
  2.296397862917309E-003  5.010468089766074E-005 -0.126529751170706     
  2.523009814209318E-003  4.710734259469715E-005 -0.120319426217870     
  2.748462708965519E-003  4.464296637421339E-005 -0.113318909026319     
  2.982729490400782E-003 -2.780715232490344E-005 -0.112545311877154     
  2.986396441800797E-003 -9.634663826251677E-005 -0.114389954102590     
  2.988512982061671E-003 -1.648258929176864E-004 -0.112544655898495     
  2.760883015726003E-003 -2.309143629508334E-004 -0.113317666332189     
  2.536096331917750E-003 -2.268350637933461E-004 -0.120318212128694     
  2.310045177105353E-003 -2.229834302317970E-004 -0.126528782644243     
  2.084034504951034E-003 -2.195321866208160E-004 -0.130331882642402     
  1.859066172214362E-003 -2.157445154008700E-004 -0.130970046538436     
  1.636020407881516E-003 -2.090277795205325E-004 -0.128211540451016     
  1.413113575614432E-003 -1.927611093124971E-004 -0.122350422687484     
  1.176088052377543E-003 -1.567910362809619E-004 -0.114214796420624     
  8.745428665293320E-004 -1.082108255497840E-004 -0.105555989692270     
  3.206387490606064E-003  3.730487086737468E-005 -0.112244910955635     
  3.438854928023918E-003  3.579414071070053E-005 -0.117234973886304     
  3.669833042492786E-003  3.474457598009212E-005 -0.121154405222219     
  3.899275495143174E-003  3.405288150168157E-005 -0.122489551335351     
  4.124958176428940E-003  3.198466011944893E-005 -0.120495348428665     
  4.343963636702431E-003  2.000067392368739E-005 -0.114924500936831     
  4.562454847298716E-003 -2.489049572849029E-005 -0.106031909730328     
  4.830223236743531E-003 -1.381968118824138E-004 -9.463053624585981E-002
  5.323453539749749E-003 -2.951701665727828E-004 -8.265259164639437E-002
  4.795967078733050E-003 -1.431440204112650E-004 -7.886247256444973E-002
  4.656430564582772E-003 -1.124217258767205E-004 -8.060891550576466E-002
  4.795557690553705E-003 -8.159335505329687E-005 -7.887443199674414E-002
  5.323909473472777E-003  7.068146467752978E-005 -8.267225995416680E-002
  4.832377582757835E-003 -8.543780408742288E-005 -9.464876172524746E-002
  4.566164572573818E-003 -1.971024094413563E-004 -0.106047539330511     
  4.349123677352382E-003 -2.396081862101594E-004 -0.114937261932674     
  4.131463804442809E-003 -2.485075547248618E-004 -0.120505117269567     
  3.907021546739617E-003 -2.468446142619285E-004 -0.122496329107754     
  3.678714256795847E-003 -2.432112489669880E-004 -0.121158369584682     
  3.448766076618402E-003 -2.393940425280356E-004 -0.117236491647191     
  3.217221317037736E-003 -2.355485357934531E-004 -0.112244590517397     
  5.119332798323967E-003 -5.215786299816506E-005 -7.516313013371528E-002
  4.421998359702110E-003 -2.081486028766246E-004 -7.346085547883381E-002
  3.950073061415734E-003 -3.198082253121547E-004 -6.998321378235761E-002
  3.527346462884169E-003 -3.625320303757395E-004 -6.389384246793740E-002
  3.104181131102274E-003 -3.721535689566433E-004 -5.487008488895560E-002
  2.675253152959532E-003 -3.720180519658082E-004 -4.316658287082602E-002
  2.246001854240216E-003 -3.698805139288415E-004 -2.979671378278721E-002
  1.823348637484046E-003 -3.605250543395148E-004 -1.658524493459951E-002
  1.408404906458554E-003 -3.264577535554788E-004 -6.159924696571626E-003
  9.447856540855565E-004 -1.322490635321392E-004 -1.910327361128068E-003
  9.397067634779796E-004 -9.450702593352973E-005 -1.927003196294776E-003
  9.368559372065087E-004 -5.663529576951249E-005 -1.925681469910105E-003
  1.394534114803755E-003  1.307657026526787E-004 -6.189139730400158E-003
  1.811361936968276E-003  1.585674452668244E-004 -1.661374220006126E-002
  2.235772540497350E-003  1.625616734531708E-004 -2.982422337457773E-002
  2.666661903914528E-003  1.601852648002148E-004 -4.319302289224403E-002
  3.097108352882858E-003  1.565960676860831E-004 -5.489544558050593E-002
  3.521672576787501E-003  1.439791329616661E-004 -6.391812484407459E-002
  3.945678899877150E-003  9.892919837916863E-005 -7.000651203093751E-002
  4.418764926206759E-003 -1.443853373391777E-005 -7.348332400331815E-002
  5.117103625746572E-003 -1.715713537978923E-004 -7.518422992414373E-002
 -4.757273556490754E-003 -5.270700892634489E-005 -7.428027852681103E-002
 -4.038524168221830E-003  1.057338164344777E-004 -7.255274309210476E-002
 -3.547915975813919E-003  2.195951149489857E-004 -6.904756534788484E-002
 -3.107050209596207E-003  2.640265974794103E-004 -6.293073769162498E-002
 -2.665725688842539E-003  2.754109079503095E-004 -5.388038269329119E-002
 -2.218803371330649E-003  2.774516671730044E-004 -4.215209764648282E-002
 -1.772442359287955E-003  2.776648138645492E-004 -2.876144154289874E-002
 -1.334598024670326E-003  2.685152998129652E-004 -1.553675397983302E-002
 -9.054435701346120E-004  2.285839094209466E-004 -5.110264484909816E-003
 -4.243140627266070E-004  1.841612000095838E-005 -8.307773782793032E-004
 -4.234743442169437E-004  6.839205437030359E-009 -8.336469211140382E-004
 -4.243067442722186E-004 -1.840173022401853E-005 -8.307755643681994E-004
 -9.053797768373838E-004 -2.285331142507266E-004 -5.110260205412802E-003
 -1.334490635633396E-003 -2.684153432572639E-004 -1.553674386693164E-002
 -1.772295220459909E-003 -2.774946870330684E-004 -2.876142359156729E-002
 -2.218620462287344E-003 -2.771925174537039E-004 -4.215207040768882E-002
 -2.665511102625894E-003 -2.750458430646723E-004 -5.388034544057748E-002
 -3.106808035990677E-003 -2.635408044346892E-004 -6.293069033431185E-002
 -3.547650295684875E-003 -2.189758264678117E-004 -6.904750820658312E-002
 -4.038239063951551E-003 -1.049701382676824E-004 -7.255267695312026E-002
 -4.756973890770694E-003  5.362409694174241E-005 -7.428020724299930E-002
 -4.638995794100037E-003  2.290689947863236E-004 -8.532950602332820E-002
 -4.377019953269569E-003  6.195991491483346E-007 -8.664508943984338E-002
 -4.638827945201306E-003 -2.278294235512975E-004 -8.532946475220639E-002
 -4.491035459931499E-003  7.239288261765537E-005 -9.508010566661207E-002
 -4.422357523384036E-003  7.103187672295359E-007 -9.569162711643311E-002
 -4.490857116895684E-003 -7.097075483507827E-005 -9.508006311127289E-002
 -4.281996955431639E-003 -2.536967081165919E-005 -0.105316478557216     
 -4.279911843051890E-003  8.068685392343718E-007 -0.105363177443896     
 -4.281809257901083E-003  2.698465811935012E-005 -0.105316431837478     
 -4.059358519566847E-003 -6.055505811639735E-005 -0.113875391114172     
 -4.067381634695871E-003  9.076347018983719E-007 -0.113764318410915     
 -4.059163485169279E-003  6.237127719866370E-005 -0.113875339966804     
 -3.835866383588700E-003 -6.780516962971624E-005 -0.119439223038573     
 -3.840688124799840E-003  1.011549560468053E-006 -0.119318328967443     
 -3.835666077792487E-003  6.982890508340496E-005 -0.119439167437363     
 -3.613562351449179E-003 -6.726046462657626E-005 -0.121488692704262     
 -3.615199755187429E-003  1.117583571429129E-006 -0.121376435483199     
 -3.613358829887434E-003  6.949595977019999E-005 -0.121488632685973     
 -3.392059838360096E-003 -6.577534089833724E-005 -0.120307952084494     
 -3.392341905534302E-003  1.224712243482781E-006 -0.120249385879230     
 -3.391855154986289E-003  6.822478605057549E-005 -0.120307888260128     
 -3.170927450662545E-003 -6.453061852233202E-005 -0.117010409629409     
 -3.171156261393379E-003  1.331905154639919E-006 -0.117158935833034     
 -3.170723654631816E-003  6.719414861584095E-005 -0.117010343057144     
 -2.950174357304259E-003 -6.340787505178284E-005 -0.113424015318555     
 -2.951353398607105E-003  1.438083635879935E-006 -0.114235950550584     
 -2.949973417165287E-003  6.628358118486670E-005 -0.113423943617991     
 -2.511367395021196E-003 -6.515573495393201E-005 -0.115013228262525     
 -2.512613751408410E-003  1.643694336732688E-006 -0.115967598592556     
 -2.511177612764261E-003  6.844190831942613E-005 -0.115013157871207     
 -2.293295541410053E-003 -6.433048910457859E-005 -0.120434126799795     
 -2.293559270061603E-003  1.741531467704302E-006 -0.120706531691731     
 -2.293114053967934E-003  6.781216001773130E-005 -0.120434063329731     
 -2.075513864523744E-003 -6.391996164263620E-005 -0.125935807643105     
 -2.075335150070955E-003  1.834805753323786E-006 -0.125907739440213     
 -2.075342652436134E-003  6.758787714880772E-005 -0.125935749343330     
 -1.857716391522527E-003 -6.398664757325092E-005 -0.129602174654027     