# vtk DataFile Version 3.0
 Bridge                                                                         
  
ASCII
DATASET UNSTRUCTURED_GRID
 POINTS        4085 double
   200.000000000000       -10.0000000000000       0.000000000000000E+000
   200.000000000000        10.0000000000000       0.000000000000000E+000
   150.000000000000        10.0000000000000       0.000000000000000E+000
   150.000000000000       -10.0000000000000       0.000000000000000E+000
   100.000000000000        10.0000000000000       0.000000000000000E+000
   100.000000000000       -10.0000000000000       0.000000000000000E+000
   50.0000000000000        10.0000000000000       0.000000000000000E+000
   50.0000000000000       -10.0000000000000       0.000000000000000E+000
  0.000000000000000E+000   10.0000000000000       0.000000000000000E+000
  0.000000000000000E+000  -10.0000000000000       0.000000000000000E+000
  -50.0000000000000        10.0000000000000       0.000000000000000E+000
  -50.0000000000000       -10.0000000000000       0.000000000000000E+000
  -100.000000000000        10.0000000000000       0.000000000000000E+000
  -100.000000000000       -10.0000000000000       0.000000000000000E+000
  -150.000000000000        10.0000000000000       0.000000000000000E+000
  -150.000000000000       -10.0000000000000       0.000000000000000E+000
  -200.000000000000        10.0000000000000       0.000000000000000E+000
  -200.000000000000       -10.0000000000000       0.000000000000000E+000
  -250.000000000000        10.0000000000000       0.000000000000000E+000
  -250.000000000000       -10.0000000000000       0.000000000000000E+000
   250.000000000000       -10.0000000000000       0.000000000000000E+000
   250.000000000000        10.0000000000000       0.000000000000000E+000
   200.000000000000       -5.00000000000000       0.000000000000000E+000
   200.000000000000       0.000000000000000E+000  0.000000000000000E+000
   200.000000000000        5.00000000000000       0.000000000000000E+000
   195.000000000000        10.0000000000000       0.000000000000000E+000
   190.000000000000        10.0000000000000       0.000000000000000E+000
   185.000000000000        10.0000000000000       0.000000000000000E+000
   180.000000000000        10.0000000000000       0.000000000000000E+000
   175.000000000000        10.0000000000000       0.000000000000000E+000
   170.000000000000        10.0000000000000       0.000000000000000E+000
   165.000000000000        10.0000000000000       0.000000000000000E+000
   160.000000000000        10.0000000000000       0.000000000000000E+000
   155.000000000000        10.0000000000000       0.000000000000000E+000
   150.000000000000        5.00000000000000       0.000000000000000E+000
   150.000000000000       0.000000000000000E+000  0.000000000000000E+000
   150.000000000000       -5.00000000000000       0.000000000000000E+000
   155.000000000000       -10.0000000000000       0.000000000000000E+000
   160.000000000000       -10.0000000000000       0.000000000000000E+000
   165.000000000000       -10.0000000000000       0.000000000000000E+000
   170.000000000000       -10.0000000000000       0.000000000000000E+000
   175.000000000000       -10.0000000000000       0.000000000000000E+000
   180.000000000000       -10.0000000000000       0.000000000000000E+000
   185.000000000000       -10.0000000000000       0.000000000000000E+000
   190.000000000000       -10.0000000000000       0.000000000000000E+000
   195.000000000000       -10.0000000000000       0.000000000000000E+000
   145.000000000000        10.0000000000000       0.000000000000000E+000
   140.000000000000        10.0000000000000       0.000000000000000E+000
   135.000000000000        10.0000000000000       0.000000000000000E+000
   130.000000000000        10.0000000000000       0.000000000000000E+000
   125.000000000000        10.0000000000000       0.000000000000000E+000
   120.000000000000        10.0000000000000       0.000000000000000E+000
   115.000000000000        10.0000000000000       0.000000000000000E+000
   110.000000000000        10.0000000000000       0.000000000000000E+000
   105.000000000000        10.0000000000000       0.000000000000000E+000
   100.000000000000        5.00000000000000       0.000000000000000E+000
   100.000000000000       0.000000000000000E+000  0.000000000000000E+000
   100.000000000000       -5.00000000000000       0.000000000000000E+000
   105.000000000000       -10.0000000000000       0.000000000000000E+000
   110.000000000000       -10.0000000000000       0.000000000000000E+000
   115.000000000000       -10.0000000000000       0.000000000000000E+000
   120.000000000000       -10.0000000000000       0.000000000000000E+000
   125.000000000000       -10.0000000000000       0.000000000000000E+000
   130.000000000000       -10.0000000000000       0.000000000000000E+000
   135.000000000000       -10.0000000000000       0.000000000000000E+000
   140.000000000000       -10.0000000000000       0.000000000000000E+000
   145.000000000000       -10.0000000000000       0.000000000000000E+000
   95.0000000000000        10.0000000000000       0.000000000000000E+000
   90.0000000000000        10.0000000000000       0.000000000000000E+000
   85.0000000000000        10.0000000000000       0.000000000000000E+000
   80.0000000000000        10.0000000000000       0.000000000000000E+000
   75.0000000000000        10.0000000000000       0.000000000000000E+000
   70.0000000000000        10.0000000000000       0.000000000000000E+000
   65.0000000000000        10.0000000000000       0.000000000000000E+000
   60.0000000000000        10.0000000000000       0.000000000000000E+000
   55.0000000000000        10.0000000000000       0.000000000000000E+000
   50.0000000000000        5.00000000000000       0.000000000000000E+000
   50.0000000000000       0.000000000000000E+000  0.000000000000000E+000
   50.0000000000000       -5.00000000000000       0.000000000000000E+000
   55.0000000000000       -10.0000000000000       0.000000000000000E+000
   60.0000000000000       -10.0000000000000       0.000000000000000E+000
   65.0000000000000       -10.0000000000000       0.000000000000000E+000
   70.0000000000000       -10.0000000000000       0.000000000000000E+000
   75.0000000000000       -10.0000000000000       0.000000000000000E+000
   80.0000000000000       -10.0000000000000       0.000000000000000E+000
   85.0000000000000       -10.0000000000000       0.000000000000000E+000
   90.0000000000000       -10.0000000000000       0.000000000000000E+000
   95.0000000000000       -10.0000000000000       0.000000000000000E+000
   45.0000000000000        10.0000000000000       0.000000000000000E+000
   40.0000000000000        10.0000000000000       0.000000000000000E+000
   35.0000000000000        10.0000000000000       0.000000000000000E+000
   30.0000000000000        10.0000000000000       0.000000000000000E+000
   25.0000000000000        10.0000000000000       0.000000000000000E+000
   20.0000000000000        10.0000000000000       0.000000000000000E+000
   15.0000000000000        10.0000000000000       0.000000000000000E+000
   10.0000000000000        10.0000000000000       0.000000000000000E+000
   5.00000000000000        10.0000000000000       0.000000000000000E+000
  0.000000000000000E+000   5.00000000000000       0.000000000000000E+000
  0.000000000000000E+000  0.000000000000000E+000  0.000000000000000E+000
  0.000000000000000E+000  -5.00000000000000       0.000000000000000E+000
   5.00000000000000       -10.0000000000000       0.000000000000000E+000
   10.0000000000000       -10.0000000000000       0.000000000000000E+000
   15.0000000000000       -10.0000000000000       0.000000000000000E+000
   20.0000000000000       -10.0000000000000       0.000000000000000E+000
   25.0000000000000       -10.0000000000000       0.000000000000000E+000
   30.0000000000000       -10.0000000000000       0.000000000000000E+000
   35.0000000000000       -10.0000000000000       0.000000000000000E+000
   40.0000000000000       -10.0000000000000       0.000000000000000E+000
   45.0000000000000       -10.0000000000000       0.000000000000000E+000
  -5.00000000000000        10.0000000000000       0.000000000000000E+000
  -10.0000000000000        10.0000000000000       0.000000000000000E+000
  -15.0000000000000        10.0000000000000       0.000000000000000E+000
  -20.0000000000000        10.0000000000000       0.000000000000000E+000
  -25.0000000000000        10.0000000000000       0.000000000000000E+000
  -30.0000000000000        10.0000000000000       0.000000000000000E+000
  -35.0000000000000        10.0000000000000       0.000000000000000E+000
  -40.0000000000000        10.0000000000000       0.000000000000000E+000
  -45.0000000000000        10.0000000000000       0.000000000000000E+000
  -50.0000000000000        5.00000000000000       0.000000000000000E+000
  -50.0000000000000       0.000000000000000E+000  0.000000000000000E+000
  -50.0000000000000       -5.00000000000000       0.000000000000000E+000
  -45.0000000000000       -10.0000000000000       0.000000000000000E+000
  -40.0000000000000       -10.0000000000000       0.000000000000000E+000
  -35.0000000000000       -10.0000000000000       0.000000000000000E+000
  -30.0000000000000       -10.0000000000000       0.000000000000000E+000
  -25.0000000000000       -10.0000000000000       0.000000000000000E+000
  -20.0000000000000       -10.0000000000000       0.000000000000000E+000
  -15.0000000000000       -10.0000000000000       0.000000000000000E+000
  -10.0000000000000       -10.0000000000000       0.000000000000000E+000
  -5.00000000000000       -10.0000000000000       0.000000000000000E+000
  -55.0000000000000        10.0000000000000       0.000000000000000E+000
  -60.0000000000000        10.0000000000000       0.000000000000000E+000
  -65.0000000000000        10.0000000000000       0.000000000000000E+000
  -70.0000000000000        10.0000000000000       0.000000000000000E+000
[...]
 CELL_DATA        2884
 POINT_DATA        4085
 FIELD Result            2
 Displacement_Load_Case01            3        4085 double
 -6.183530010639997E-003  7.015914936801479E-005 -7.502606666402607E-002
 -6.183224140943890E-003 -6.908311405966827E-005 -7.502599695580615E-002
 -2.722044048428236E-003  1.331353617083420E-004 -0.108813301439691     
 -2.722439964021525E-003 -1.300541830642476E-004 -0.108813430184243     
 -2.058757440614256E-004  7.663511493852819E-005 -0.100540035204511     
 -2.059611757186941E-004 -7.210715418250790E-005 -0.100540080016560     
 -2.475881348504866E-004  1.948940239043190E-005 -6.191076127848819E-002
 -2.470349666815890E-004 -1.588687941899570E-005 -6.191120149637885E-002
  1.294853395360637E-005 -1.287914957621604E-004 -6.597348176985194E-003
  1.413123224741582E-005  1.272995751057587E-004 -6.597132674283653E-003
  3.473529721385604E-004 -1.248118660825525E-006 -6.206638526196209E-002
  3.606185771246037E-004 -4.363644838656405E-005 -6.207178571615290E-002
  3.585334432882960E-004  1.844461716726717E-005 -0.100784185626241     
  3.730432832555362E-004 -1.391451560770379E-004 -0.100785524712983     
  2.969993193495779E-003  4.081055024213299E-005 -0.109405754760462     
  2.981632910166205E-003 -2.332625660309135E-004 -0.109404660152338     
  6.515593117980209E-003 -1.737321027489236E-004 -7.589554678461632E-002
  6.514040585331492E-003 -5.068459591841573E-005 -7.591474574404210E-002
  9.677568947477058E-004 -1.862601476636933E-004 -1.847844829412191E-003
  9.518329891601855E-004 -2.203811763636271E-006 -1.877358618412343E-003
 -4.402950227467983E-004  4.700509016623859E-005 -8.063263590390722E-004
 -4.402797860179570E-004 -4.698793408452429E-005 -8.063249444459373E-004
 -4.442849384520935E-003  3.535397022488242E-005 -7.798924574591583E-002
 -4.301691274944346E-003  5.351655734517121E-007 -7.972962130094594E-002
 -4.442689881635993E-003 -3.428221246268516E-005 -7.798920227432972E-002
 -4.989282472817520E-003 -1.918903671844003E-004 -8.179792595191625E-002
 -4.502865062082609E-003 -3.328556727343382E-005 -9.380245699316528E-002
 -4.244665370780050E-003  8.070728752484398E-005 -0.105233214740053     
 -4.036307428988567E-003  1.250528771688394E-004 -0.114156592853381     
 -3.827374781246362E-003  1.357286954499501E-004 -0.119759073174248     
 -3.611625524440807E-003  1.360457807273758E-004 -0.121785411349966     
 -3.392017701144126E-003  1.346906481663128E-004 -0.120482660019110     
 -3.170834885603623E-003  1.334673464314576E-004 -0.116595452493678     
 -2.948234601866842E-003  1.324902764674002E-004 -0.111635544044655     
 -2.730986265901530E-003  6.733018192412527E-005 -0.111953496564031     
 -2.731780927870800E-003  1.542277734045030E-006 -0.113798741369149     
 -2.731182671424301E-003 -6.424646978521164E-005 -0.111953576681706     
 -2.948640963732639E-003 -1.296162999946108E-004 -0.111635680630404     
 -3.171247201164113E-003 -1.308046632710169E-004 -0.116595588041859     
 -3.392431793904239E-003 -1.322411425493353E-004 -0.120482788148760     
 -3.612037289419546E-003 -1.338093004156556E-004 -0.121785531200806     
 -3.827780113911405E-003 -1.337030503079849E-004 -0.119759184322629     
 -4.036702226482482E-003 -1.232338246536348E-004 -0.114156695057098     
 -4.245045539091589E-003 -7.908852986841783E-005 -0.105233308499745     
 -4.503226505718116E-003  3.471220664923503E-005 -9.380254343964835E-002
 -4.989620316470236E-003  1.931349466754147E-004 -8.179800409796005E-002
 -2.509253701205758E-003  1.339096273755635E-004 -0.112745819111957     
 -2.292878596323464E-003  1.332862014926507E-004 -0.119782871155097     
 -2.075419304374863E-003  1.330115623956524E-004 -0.126034423209727     
 -1.858075952701173E-003  1.332179059066608E-004 -0.129880179531519     
 -1.641811037088716E-003  1.331706226629846E-004 -0.130561345162359     
 -1.427487913878980E-003  1.303025584420562E-004 -0.127844972652436     
 -1.213352428153124E-003  1.180752743329920E-004 -0.122023781877428     
 -9.853738363914356E-004  8.647314233023000E-005 -0.113924366319100     
 -6.939611142103727E-004  4.245331637502801E-005 -0.105295564134107     
 -6.897433544695724E-004  3.945387941127248E-005 -0.103699209527859     
 -7.289823248143185E-004  2.271125718639268E-006 -0.105555885666427     
 -6.897873874613534E-004 -3.491519874081233E-005 -0.103699238095119     
 -6.940980542558068E-004 -3.798792318548360E-005 -0.105295612464788     
 -9.855563932940482E-004 -8.209450033794346E-005 -0.113924420613923     
 -1.213576154633289E-003 -1.138048614450194E-004 -0.122023845483958     
 -1.427748687047803E-003 -1.261598618569841E-004 -0.127845048508161     
 -1.642104735551297E-003 -1.291731378622660E-004 -0.130561434697203     
 -1.858398451515390E-003 -1.293810645736236E-004 -0.129880283013112     
 -2.075766478383430E-003 -1.293487329586388E-004 -0.126034540249410     
 -2.293246320599737E-003 -1.298087051795197E-004 -0.119783000487626     
 -2.509637780013297E-003 -1.306267373853354E-004 -0.112745953582081     
 -4.461313296806054E-004  1.107922467373680E-004 -0.102724319491774     
 -4.897122371372983E-004  6.673405644991217E-005 -0.106608615033155     
 -4.698585337035576E-004  3.506979789011616E-005 -0.109445892301670     
 -4.361581416530061E-004  2.275587461560560E-005 -0.109813182931090     
 -4.026337690759346E-004  1.978229175052944E-005 -0.106998237469051     
 -3.710304928019383E-004  1.963779524534591E-005 -0.100793116437017     
 -3.405051188507580E-004  1.982697102006759E-005 -9.151866360376350E-002
 -3.102523862460823E-004  1.972346775524009E-005 -8.005610237069077E-002
 -2.796228107036784E-004  1.937688401077201E-005 -6.835457786880290E-002
 -2.508980504888543E-004  1.066004920287138E-005 -6.499620534738253E-002
 -2.510461454837131E-004  1.814307244918722E-006 -6.680956352663868E-002
 -2.506186617788288E-004 -7.037945468779796E-006 -6.499647841448104E-002
 -2.791523315583693E-004 -1.552475357499064E-005 -6.835504024002013E-002
 -3.098606110973253E-004 -1.566242535875756E-005 -8.005654604803185E-002
 -3.401878947585024E-004 -1.559533912156961E-005 -9.151905824055265E-002
 -3.707836434249621E-004 -1.527181282799721E-005 -0.100793454051827     
 -4.024531229843453E-004 -1.531610139710671E-005 -0.106998514305087     
 -4.360395287186953E-004 -1.822153523535097E-005 -0.109813398072009     
 -4.697977876570784E-004 -3.049728146316919E-005 -0.109446049033059     
 -4.897051917572521E-004 -6.215132226251621E-005 -0.106608721025501     
 -4.461734959042730E-004 -1.062252383200590E-004 -0.102724385304304     
 -2.207096880651212E-004  1.959613701505187E-005 -6.223523633746410E-002
 -1.924182161354978E-004  1.910745583279556E-005 -6.274085140204143E-002
 -1.636396209414602E-004  1.870859605694321E-005 -6.198965020551179E-002
 -1.347175608238366E-004  1.854343238388292E-005 -5.891617107846899E-002
 -1.058722708883751E-004  1.875224812810632E-005 -5.302967983834277E-002
 -7.771825232896384E-005  1.947503314181139E-005 -4.438153598467125E-002
 -5.196852577110440E-005  2.006991957964732E-005 -3.364226015115099E-002
 -3.161710062204105E-005  1.492976479722623E-005 -2.203675829420952E-002
 -1.638601121241841E-005 -3.511676980236258E-006 -1.162665843037655E-002
  2.792960326643571E-005 -4.407262800970366E-005 -1.020814620807491E-002
  2.977881018441132E-005 -7.035956812264525E-007 -1.233467272719203E-002
  2.919298287970922E-005  4.263961709895281E-005 -1.020801951282252E-002
 -1.494385476892640E-005  2.626422618911244E-006 -1.162640823097246E-002
 -3.023425294676213E-005 -1.505890007684689E-005 -2.203651981782101E-002
 -5.070479838886057E-005 -1.953258000810962E-005 -3.364209220982724E-002
 -7.657030785111874E-005 -1.834202461890753E-005 -4.438146663292135E-002
 -1.048347209217605E-004 -1.708013330489936E-005 -5.302972285464322E-002
 -1.337857566426009E-004 -1.638614112757090E-005 -5.891633136592565E-002
 -1.628091054961997E-004 -1.611784515615294E-005 -6.198992458875531E-002
 -1.916845396637785E-004 -1.613277438376743E-005 -6.274122763360410E-002
 -2.200684322048731E-004 -1.628481070930471E-005 -6.223567574136710E-002
  6.374739326908392E-005 -6.671869461511835E-006 -1.163591237380714E-002
  8.861615849187616E-005  1.301639292954901E-005 -2.206300078865338E-002
  1.147770498628819E-004  1.832063048738841E-005 -3.368716433789676E-002
  1.455257101415620E-004  1.638672362713535E-005 -4.444552161356128E-002
  1.787385528979550E-004  1.345462185905245E-005 -5.311268024615345E-002
  2.128114556836077E-004  1.059523391132509E-005 -5.901770467698315E-002
  2.470780792488576E-004  7.847227326678528E-006 -6.210874682536601E-002
  2.812709229396899E-004  5.132149795825806E-006 -6.287597004430467E-002
  3.150162557168171E-004  2.329280691616223E-006 -6.238388233338372E-002
  3.542596922942413E-004 -1.176649301311980E-005 -6.515232193090338E-002
  3.578485124443290E-004 -2.234383152303607E-005 -6.696695707361018E-002
  3.608414118075828E-004 -3.297034528355705E-005 -6.515567897408782E-002
  3.275948655886338E-004 -4.058277092095030E-005 -6.238946877588864E-002
  2.930532740340522E-004 -3.712713593506410E-005 -6.288120629449123E-002
  2.579585587640081E-004 -3.400872020907122E-005 -6.211327641380344E-002
  2.226852057070186E-004 -3.140054488375561E-005 -5.902143484771288E-002
  1.875006830671800E-004 -2.943338188006893E-005 -5.311556793345888E-002
  1.530715231450752E-004 -2.812092995223439E-005 -4.444756150812729E-002
  1.210025318717037E-004 -2.644550996827098E-005 -3.368840358790235E-002
  9.341907591137152E-005 -1.820433386235569E-005 -2.206354227185068E-002
  6.696614002079723E-005  3.706333774803106E-006 -1.163592563617793E-002
  3.850554133511808E-004 -4.969211848566117E-006 -6.851450198366799E-002
  4.213565391410618E-004 -8.333229092871001E-006 -8.022351164664904E-002
  4.573166774209172E-004 -1.203922712186062E-005 -9.169378672232452E-002
  4.936017833769406E-004 -1.611371660024636E-005 -0.100975937719347     
  5.310318751113149E-004 -1.989417160857758E-005 -0.107189066493595     
  5.704638929857332E-004 -2.081934069013186E-005 -0.110012818535214     
  6.101244344975060E-004 -1.224803268072279E-005 -0.109655728834032     
  6.357651531695522E-004  1.601306947886784E-005 -0.106830527526240     
  5.970119861475592E-004  5.691795192342265E-005 -0.102959755327377     
  8.536867995713057E-004 -2.096260671761903E-005 -0.103944592105536     
  8.972652817406106E-004 -6.036220791548912E-005 -0.105802262418608     
  8.611482846640620E-004 -9.975582371450265E-005 -0.103945428682628     
  6.119970200460554E-004 -1.700476446935040E-004 -0.102961403794203     
  6.509944362116500E-004 -1.214032916051111E-004 -0.106832635228920     
  6.254713252754765E-004 -8.532784083553144E-005 -0.109658350521640     
  5.858249992733789E-004 -6.891405473956627E-005 -0.110016024059511     
  5.463038494391909E-004 -6.201527471454580E-005 -0.107192886449456     
  5.086810101851307E-004 -5.804222939038388E-005 -0.100980361049546     
  4.720994757011383E-004 -5.448549484107820E-005 -9.169877969440493E-002
  4.357392073127935E-004 -5.073425589648706E-005 -8.022900511754189E-002
  3.989334532946792E-004 -4.686666169853892E-005 -6.852017540164329E-002
  8.597212369859023E-004 -2.001823424560198E-005 -0.105554721344665     
  1.161185113932484E-003  2.094552577000137E-005 -0.114213811929967     
  1.398255614766393E-003  4.930567901372141E-005 -0.122349821981684     
  1.621310448812450E-003  5.801549616778580E-005 -0.128211352958874     
  1.844607181052074E-003  5.727492602363746E-005 -0.130970276395030     
  2.069929711999407E-003  5.375656290630286E-005 -0.130332507225302     
  2.296397862917259E-003  5.010468089491743E-005 -0.126529751170701     
  2.523009814209273E-003  4.710734259196567E-005 -0.120319426217866     
  2.748462708965481E-003  4.464296637151192E-005 -0.113318909026314     
  2.982729490400690E-003 -2.780715232755605E-005 -0.112545311877147     
  2.986396441800650E-003 -9.634663826516289E-005 -0.114389954102579     
  2.988512982061467E-003 -1.648258929203207E-004 -0.112544655898482     
  2.760883015725805E-003 -2.309143629534992E-004 -0.113317666332173     
  2.536096331917618E-003 -2.268350637960417E-004 -0.120318212128679     
  2.310045177105285E-003 -2.229834302345055E-004 -0.126528782644228     
  2.084034504951031E-003 -2.195321866235194E-004 -0.130331882642387     
  1.859066172214422E-003 -2.157445154035509E-004 -0.130970046538423     
  1.636020407881638E-003 -2.090277795231746E-004 -0.128211540451004     
  1.413113575614617E-003 -1.927611093150845E-004 -0.122350422687475     
  1.176088052377792E-003 -1.567910362834812E-004 -0.114214796420618     
  8.745428665296573E-004 -1.082108255522212E-004 -0.105555989692267     
  3.206387490606032E-003  3.730487086478477E-005 -0.112244910955630     
  3.438854928023888E-003  3.579414070819064E-005 -0.117234973886299     
  3.669833042492758E-003  3.474457597767778E-005 -0.121154405222215     
  3.899275495143149E-003  3.405288149937917E-005 -0.122489551335346     
  4.124958176428921E-003  3.198466011727632E-005 -0.120495348428660     
  4.343963636702420E-003  2.000067392166387E-005 -0.114924500936826     
  4.562454847298713E-003 -2.489049573034208E-005 -0.106031909730323     
  4.830223236743531E-003 -1.381968118840691E-004 -9.463053624585452E-002
  5.323453539749734E-003 -2.951701665742186E-004 -8.265259164638925E-002
  4.795967078732858E-003 -1.431440204124867E-004 -7.886247256444387E-002
  4.656430564582384E-003 -1.124217258779438E-004 -8.060891550575755E-002
  4.795557690553093E-003 -8.159335505452227E-005 -7.887443199673606E-002
  5.323909473471892E-003  7.068146467606263E-005 -8.267225995415625E-002
  4.832377582757048E-003 -8.543780408907590E-005 -9.464876172523357E-002
  4.566164572573105E-003 -1.971024094431822E-004 -0.106047539330494     
  4.349123677351734E-003 -2.396081862121473E-004 -0.114937261932653     
  4.131463804442230E-003 -2.485075547269957E-004 -0.120505117269545     
  3.907021546739103E-003 -2.468446142641926E-004 -0.122496329107731     
  3.678714256795397E-003 -2.432112489693658E-004 -0.121158369584660     
  3.448766076618016E-003 -2.393940425305095E-004 -0.117236491647171     
  3.217221317037412E-003 -2.355485357960065E-004 -0.112244590517380     
  5.119332798323951E-003 -5.215786299917516E-005 -7.516313013371080E-002
  4.421998359702113E-003 -2.081486028774220E-004 -7.346085547883006E-002
  3.950073061415733E-003 -3.198082253127651E-004 -6.998321378235460E-002
  3.527346462884160E-003 -3.625320303761922E-004 -6.389384246793535E-002
  3.104181131102257E-003 -3.721535689569643E-004 -5.487008488895445E-002
  2.675253152959509E-003 -3.720180519660211E-004 -4.316658287082555E-002
  2.246001854240186E-003 -3.698805139289687E-004 -2.979671378278718E-002
  1.823348637484011E-003 -3.605250543395782E-004 -1.658524493459961E-002
  1.408404906458513E-003 -3.264577535555016E-004 -6.159924696571656E-003
  9.447856540855020E-004 -1.322490635321479E-004 -1.910327361128034E-003
  9.397067634779115E-004 -9.450702593354059E-005 -1.927003196294734E-003
  9.368559372064272E-004 -5.663529576952854E-005 -1.925681469910057E-003
  1.394534114803579E-003  1.307657026526152E-004 -6.189139730400114E-003
  1.811361936968022E-003  1.585674452667156E-004 -1.661374220006125E-002
  2.235772540497015E-003  1.625616734529970E-004 -2.982422337457783E-002
  2.666661903914112E-003  1.601852647999549E-004 -4.319302289224428E-002
  3.097108352882359E-003  1.565960676857151E-004 -5.489544558050607E-002
  3.521672576786919E-003  1.439791329611685E-004 -6.391812484407389E-002
  3.945678899876485E-003  9.892919837852259E-005 -7.000651203093521E-002
  4.418764926206006E-003 -1.443853373472706E-005 -7.348332400331363E-002
  5.117103625745703E-003 -1.715713537988821E-004 -7.518422992413670E-002
 -4.757273556490909E-003 -5.270700892676554E-005 -7.428027852681518E-002
 -4.038524168221957E-003  1.057338164341459E-004 -7.255274309210928E-002
 -3.547915975814029E-003  2.195951149487322E-004 -6.904756534788967E-002
 -3.107050209596303E-003  2.640265974792232E-004 -6.293073769162981E-002
 -2.665725688842620E-003  2.754109079501791E-004 -5.388038269329567E-002
 -2.218803371330717E-003  2.774516671729218E-004 -4.215209764648643E-002
 -1.772442359288011E-003  2.776648138645051E-004 -2.876144154290121E-002
 -1.334598024670369E-003  2.685152998129497E-004 -1.553675397983433E-002
 -9.054435701346457E-004  2.285839094209478E-004 -5.110264484910212E-003
 -4.243140627266307E-004  1.841612000095851E-005 -8.307773782793171E-004
 -4.234743442169701E-004  6.839205436047089E-009 -8.336469211140534E-004
 -4.243067442722478E-004 -1.840173022402134E-005 -8.307755643682147E-004
 -9.053797768374700E-004 -2.285331142507574E-004 -5.110260205412809E-003
 -1.334490635633532E-003 -2.684153432573168E-004 -1.553674386693172E-002
 -1.772295220460095E-003 -2.774946870331511E-004 -2.876142359156761E-002
 -2.218620462287579E-003 -2.771925174538247E-004 -4.215207040768955E-002
 -2.665511102626179E-003 -2.750458430648407E-004 -5.388034544057879E-002
 -3.106808035991010E-003 -2.635408044349130E-004 -6.293069033431402E-002
 -3.547650295685254E-003 -2.189758264680978E-004 -6.904750820658632E-002
 -4.038239063951978E-003 -1.049701382680345E-004 -7.255267695312463E-002
 -4.756973890771182E-003  5.362409694131985E-005 -7.428020724300455E-002
 -4.638995794100279E-003  2.290689947857367E-004 -8.532950602333302E-002
 -4.377019953269883E-003  6.195991485489302E-007 -8.664508943984831E-002
 -4.638827945201721E-003 -2.278294235519116E-004 -8.532946475221137E-002
 -4.491035459931741E-003  7.239288261697311E-005 -9.508010566661745E-002
 -4.422357523384358E-003  7.103187665412405E-007 -9.569162711643781E-002
 -4.490857116896095E-003 -7.097075483577163E-005 -9.508006311127691E-002
 -4.281996955431879E-003 -2.536967081243105E-005 -0.105316478557221     
 -4.279911843052213E-003  8.068685384612920E-007 -0.105363177443900     
 -4.281809257901485E-003  2.698465811857722E-005 -0.105316431837480     
 -4.059358519567085E-003 -6.055505811725276E-005 -0.113875391114178     
 -4.067381634696187E-003  9.076347010441915E-007 -0.113764318410918     
 -4.059163485169672E-003  6.237127719781157E-005 -0.113875339966805     
 -3.835866383588937E-003 -6.780516963064919E-005 -0.119439223038579     
 -3.840688124800149E-003  1.011549559536559E-006 -0.119318328967445     
 -3.835666077792871E-003  6.982890508247607E-005 -0.119439167437363     
 -3.613562351449413E-003 -6.726046462758115E-005 -0.121488692704267     
 -3.615199755187733E-003  1.117583570425367E-006 -0.121376435483202     
 -3.613358829887809E-003  6.949595976919832E-005 -0.121488632685973     
 -3.392059838360330E-003 -6.577534089940963E-005 -0.120307952084498     
 -3.392341905534601E-003  1.224712242410943E-006 -0.120249385879233     
 -3.391855154986654E-003  6.822478604950624E-005 -0.120307888260130     
 -3.170927450662780E-003 -6.453061852346699E-005 -0.117010409629413     
 -3.171156261393673E-003  1.331905153505754E-006 -0.117158935833038     
 -3.170723654632169E-003  6.719414861470937E-005 -0.117010343057147     
 -2.950174357304494E-003 -6.340787505297538E-005 -0.113424015318559     
 -2.951353398607393E-003  1.438083634688625E-006 -0.114235950550589     
 -2.949973417165629E-003  6.628358118367832E-005 -0.113423943617996     
 -2.511367395021431E-003 -6.515573495522207E-005 -0.115013228262530     
 -2.512613751408687E-003  1.643694335443150E-006 -0.115967598592562     
 -2.511177612764581E-003  6.844190831813879E-005 -0.115013157871213     
 -2.293295541410288E-003 -6.433048910590884E-005 -0.120434126799800     
 -2.293559270061875E-003  1.741531466374655E-006 -0.120706531691737     
 -2.293114053968242E-003  6.781216001640425E-005 -0.120434063329739     
 -2.075513864523979E-003 -6.391996164400046E-005 -0.125935807643109     
 -2.075335150071220E-003  1.834805751960441E-006 -0.125907739440219     
 -2.075342652436429E-003  6.758787714744703E-005 -0.125935749343338     
 -1.857716391522762E-003 -6.398664757464306E-005 -0.129602174654031     