# vtk DataFile Version 3.0
 SHELL                                                                          
  
ASCII
DATASET UNSTRUCTURED_GRID
 POINTS           6 double
  -1000.00000000000       0.000000000000000E+000  0.000000000000000E+000
  0.000000000000000E+000  0.000000000000000E+000  0.000000000000000E+000
  0.000000000000000E+000   1000.00000000000       0.000000000000000E+000
  -1000.00000000000        1000.00000000000       0.000000000000000E+000
   1000.00000000000       0.000000000000000E+000  0.000000000000000E+000
   1000.00000000000        1000.00000000000       0.000000000000000E+000
 CELLS            2          10
           4           0           1           2           3
           4           1           4           5           2
 CELL_TYPES            2
           9           9
 CELL_DATA           2
 POINT_DATA           6
 FIELD Result            2
 Displacement_Load_Case01            3           6 double
  0.000000000000000E+000  0.000000000000000E+000  0.000000000000000E+000
  0.000000000000000E+000  0.000000000000000E+000  0.000000000000000E+000
 -1.654361225106055E-024  7.425029948825207E-009  1.497597705103383E-007
  7.817744026233995E-009  2.222029325904499E-008  2.246392190659484E-007
  0.000000000000000E+000  0.000000000000000E+000  0.000000000000000E+000
 -7.817744026234000E-009  2.222029325904499E-008  2.246392190659482E-007
 Stress_Load_Case01            5           6 double
  2.679500889144412E-004  6.103649960345809E-003 -1.378824051636258E-003
 -2.982622401032552E-016  -575.999117347455     
  3.169567635374171E-002  1.972119732830367E-002 -1.100287364628588E-002
  0.195610426780332       -706.406373355403     
  3.169567635374171E-002  1.972119732830367E-002 -1.100287364628588E-002
  0.195610426780332       -706.406373355403     
  4.611026669491922E-002  2.489780592918395E-002 -1.357926308006432E-002
 -2.982622401032552E-016  -575.999117347455     
  0.117888883044425       4.897559380437783E-002 -1.458082505834337E-003
  0.431995808817042       -863.996996407493     
  2.178282188028940E-002  1.616549546086728E-002 -1.698620284070585E-002
  0.431995808817041       -863.996996407493     
