# vtk DataFile Version 3.0
 Bridge                                                                         
  
ASCII
DATASET UNSTRUCTURED_GRID
 POINTS        4087 double
   200.000000000000       -10.0000000000000       0.000000000000000E+000
   200.000000000000        10.0000000000000       0.000000000000000E+000
   150.000000000000        10.0000000000000       0.000000000000000E+000
   150.000000000000       -10.0000000000000       0.000000000000000E+000
   100.000000000000        10.0000000000000       0.000000000000000E+000
   100.000000000000       -10.0000000000000       0.000000000000000E+000
   50.0000000000000        10.0000000000000       0.000000000000000E+000
   50.0000000000000       -10.0000000000000       0.000000000000000E+000
  0.000000000000000E+000   10.0000000000000       0.000000000000000E+000
  0.000000000000000E+000  -10.0000000000000       0.000000000000000E+000
  -50.0000000000000        10.0000000000000       0.000000000000000E+000
  -50.0000000000000       -10.0000000000000       0.000000000000000E+000
  -100.000000000000        10.0000000000000       0.000000000000000E+000
  -100.000000000000       -10.0000000000000       0.000000000000000E+000
  -150.000000000000        10.0000000000000       0.000000000000000E+000
  -150.000000000000       -10.0000000000000       0.000000000000000E+000
  -200.000000000000        10.0000000000000       0.000000000000000E+000
  -200.000000000000       -10.0000000000000       0.000000000000000E+000
  -250.000000000000        10.0000000000000       0.000000000000000E+000
  -250.000000000000       -10.0000000000000       0.000000000000000E+000
   250.000000000000       -10.0000000000000       0.000000000000000E+000
   250.000000000000        10.0000000000000       0.000000000000000E+000
   200.000000000000       -5.00000000000000       0.000000000000000E+000
   200.000000000000       0.000000000000000E+000  0.000000000000000E+000
   200.000000000000        5.00000000000000       0.000000000000000E+000
   195.000000000000        10.0000000000000       0.000000000000000E+000
   190.000000000000        10.0000000000000       0.000000000000000E+000
   185.000000000000        10.0000000000000       0.000000000000000E+000
   180.000000000000        10.0000000000000       0.000000000000000E+000
   175.000000000000        10.0000000000000       0.000000000000000E+000
   170.000000000000        10.0000000000000       0.000000000000000E+000
   165.000000000000        10.0000000000000       0.000000000000000E+000
   160.000000000000        10.0000000000000       0.000000000000000E+000
   155.000000000000        10.0000000000000       0.000000000000000E+000
   150.000000000000        5.00000000000000       0.000000000000000E+000
   150.000000000000       0.000000000000000E+000  0.000000000000000E+000
   150.000000000000       -5.00000000000000       0.000000000000000E+000
   155.000000000000       -10.0000000000000       0.000000000000000E+000
   160.000000000000       -10.0000000000000       0.000000000000000E+000
   165.000000000000       -10.0000000000000       0.000000000000000E+000
   170.000000000000       -10.0000000000000       0.000000000000000E+000
   175.000000000000       -10.0000000000000       0.000000000000000E+000
   180.000000000000       -10.0000000000000       0.000000000000000E+000
   185.000000000000       -10.0000000000000       0.000000000000000E+000
   190.000000000000       -10.0000000000000       0.000000000000000E+000
   195.000000000000       -10.0000000000000       0.000000000000000E+000
   145.000000000000        10.0000000000000       0.000000000000000E+000
   140.000000000000        10.0000000000000       0.000000000000000E+000
   135.000000000000        10.0000000000000       0.000000000000000E+000
   130.000000000000        10.0000000000000       0.000000000000000E+000
   125.000000000000        10.0000000000000       0.000000000000000E+000
   120.000000000000        10.0000000000000       0.000000000000000E+000
   115.000000000000        10.0000000000000       0.000000000000000E+000
   110.000000000000        10.0000000000000       0.000000000000000E+000
   105.000000000000        10.0000000000000       0.000000000000000E+000
   100.000000000000        5.00000000000000       0.000000000000000E+000
   100.000000000000       0.000000000000000E+000  0.000000000000000E+000
   100.000000000000       -5.00000000000000       0.000000000000000E+000
   105.000000000000       -10.0000000000000       0.000000000000000E+000
   110.000000000000       -10.0000000000000       0.000000000000000E+000
   115.000000000000       -10.0000000000000       0.000000000000000E+000
   120.000000000000       -10.0000000000000       0.000000000000000E+000
   125.000000000000       -10.0000000000000       0.000000000000000E+000
   130.000000000000       -10.0000000000000       0.000000000000000E+000
   135.000000000000       -10.0000000000000       0.000000000000000E+000
   140.000000000000       -10.0000000000000       0.000000000000000E+000
   145.000000000000       -10.0000000000000       0.000000000000000E+000
   95.0000000000000        10.0000000000000       0.000000000000000E+000
   90.0000000000000        10.0000000000000       0.000000000000000E+000
   85.0000000000000        10.0000000000000       0.000000000000000E+000
   80.0000000000000        10.0000000000000       0.000000000000000E+000
   75.0000000000000        10.0000000000000       0.000000000000000E+000
   70.0000000000000        10.0000000000000       0.000000000000000E+000
   65.0000000000000        10.0000000000000       0.000000000000000E+000
   60.0000000000000        10.0000000000000       0.000000000000000E+000
   55.0000000000000        10.0000000000000       0.000000000000000E+000
   50.0000000000000        5.00000000000000       0.000000000000000E+000
   50.0000000000000       0.000000000000000E+000  0.000000000000000E+000
   50.0000000000000       -5.00000000000000       0.000000000000000E+000
   55.0000000000000       -10.0000000000000       0.000000000000000E+000
   60.0000000000000       -10.0000000000000       0.000000000000000E+000
   65.0000000000000       -10.0000000000000       0.000000000000000E+000
   70.0000000000000       -10.0000000000000       0.000000000000000E+000
   75.0000000000000       -10.0000000000000       0.000000000000000E+000
   80.0000000000000       -10.0000000000000       0.000000000000000E+000
   85.0000000000000       -10.0000000000000       0.000000000000000E+000
   90.0000000000000       -10.0000000000000       0.000000000000000E+000
   95.0000000000000       -10.0000000000000       0.000000000000000E+000
   45.0000000000000        10.0000000000000       0.000000000000000E+000
   40.0000000000000        10.0000000000000       0.000000000000000E+000
   35.0000000000000        10.0000000000000       0.000000000000000E+000
   30.0000000000000        10.0000000000000       0.000000000000000E+000
   25.0000000000000        10.0000000000000       0.000000000000000E+000
   20.0000000000000        10.0000000000000       0.000000000000000E+000
   15.0000000000000        10.0000000000000       0.000000000000000E+000
   10.0000000000000        10.0000000000000       0.000000000000000E+000
   5.00000000000000        10.0000000000000       0.000000000000000E+000
  0.000000000000000E+000   5.00000000000000       0.000000000000000E+000
  0.000000000000000E+000  0.000000000000000E+000  0.000000000000000E+000
  0.000000000000000E+000  -5.00000000000000       0.000000000000000E+000
   5.00000000000000       -10.0000000000000       0.000000000000000E+000
   10.0000000000000       -10.0000000000000       0.000000000000000E+000
   15.0000000000000       -10.0000000000000       0.000000000000000E+000
   20.0000000000000       -10.0000000000000       0.000000000000000E+000
   25.0000000000000       -10.0000000000000       0.000000000000000E+000
   30.0000000000000       -10.0000000000000       0.000000000000000E+000
   35.0000000000000       -10.0000000000000       0.000000000000000E+000
   40.0000000000000       -10.0000000000000       0.000000000000000E+000
   45.0000000000000       -10.0000000000000       0.000000000000000E+000
  -5.00000000000000        10.0000000000000       0.000000000000000E+000
  -10.0000000000000        10.0000000000000       0.000000000000000E+000
  -15.0000000000000        10.0000000000000       0.000000000000000E+000
  -20.0000000000000        10.0000000000000       0.000000000000000E+000
  -25.0000000000000        10.0000000000000       0.000000000000000E+000
  -30.0000000000000        10.0000000000000       0.000000000000000E+000
  -35.0000000000000        10.0000000000000       0.000000000000000E+000
  -40.0000000000000        10.0000000000000       0.000000000000000E+000
  -45.0000000000000        10.0000000000000       0.000000000000000E+000
  -50.0000000000000        5.00000000000000       0.000000000000000E+000
  -50.0000000000000       0.000000000000000E+000  0.000000000000000E+000
  -50.0000000000000       -5.00000000000000       0.000000000000000E+000
  -45.0000000000000       -10.0000000000000       0.000000000000000E+000
  -40.0000000000000       -10.0000000000000       0.000000000000000E+000
  -35.0000000000000       -10.0000000000000       0.000000000000000E+000
  -30.0000000000000       -10.0000000000000       0.000000000000000E+000
  -25.0000000000000       -10.0000000000000       0.000000000000000E+000
  -20.0000000000000       -10.0000000000000       0.000000000000000E+000
  -15.0000000000000       -10.0000000000000       0.000000000000000E+000
  -10.0000000000000       -10.0000000000000       0.000000000000000E+000
  -5.00000000000000       -10.0000000000000       0.000000000000000E+000
  -55.0000000000000        10.0000000000000       0.000000000000000E+000
  -60.0000000000000        10.0000000000000       0.000000000000000E+000
  -65.0000000000000        10.0000000000000       0.000000000000000E+000
  -70.0000000000000        10.0000000000000       0.000000000000000E+000
[...]
 CELL_DATA        2884
 POINT_DATA        4087
 FIELD Result            2
 Displacement_Load_Case01            3        4087 double
 -9.576205883173046E-003  1.804222779066120E-004 -9.479173479417174E-002
 -9.575982435916636E-003 -1.791640088858078E-004 -9.479298705965739E-002
 -6.970115736802240E-003  1.124523728563819E-004 -0.131124791784215     
 -6.970062567715792E-003 -1.102052677609629E-004 -0.131124654652124     
 -3.887959459791869E-003  1.420053521492783E-004 -0.124018562110597     
 -3.886478184665305E-003 -1.431136128645644E-004 -0.124018660598494     
 -2.320611273948525E-003  1.118844080248510E-004 -8.232526161338807E-002
 -2.315886107429260E-003 -1.280318541646923E-004 -8.232903394584565E-002
  1.820927691462922E-004  6.021163112534362E-005 -1.542274665367509E-002
  1.910360919247988E-004 -1.103081585886533E-004 -1.542366032486161E-002
  2.723406900895470E-003  6.525147166527585E-005 -8.259961471628140E-002
  2.737716917181973E-003 -1.780761222346502E-004 -8.260686411835932E-002
  4.309791937579510E-003  5.446784112159962E-005 -0.124555751848477     
  4.321866724539669E-003 -2.378869645171157E-004 -0.124564935711528     
  7.499820477952705E-003 -2.145953706886840E-006 -0.132171813551534     
  7.507610564390924E-003 -2.356599487369090E-004 -0.132180275556930     
  1.018318699651307E-002 -2.978077059234474E-004 -9.617047838625999E-002
  1.017927773798625E-002  4.575895975196579E-005 -9.620251113059879E-002
  1.438906841811557E-003 -2.556084809349517E-004 -2.083370221619282E-003
  1.421891327736214E-003  5.085798495760454E-005 -2.117015424809840E-003
 -6.405782215412535E-004  7.530727149562155E-005 -9.064424784459433E-004
 -6.405501093176895E-004 -7.526678653263849E-005 -9.064464260069208E-004
 -7.341760264092085E-003  9.106510927708647E-005 -0.102373954888866     
 -7.160590967659498E-003  6.297672532240754E-007 -0.105152421205143     
 -7.341633769364664E-003 -8.980589285586034E-005 -0.102374600267487     
 -8.200619816456915E-003 -3.400553236505912E-004 -0.102217644413662     
 -7.732985840056930E-003 -1.370615399216181E-004 -0.113777910841319     
 -7.558339315164187E-003  8.908134255097589E-006 -0.124662561112818     
 -7.447518595342556E-003  6.552804692285868E-005 -0.133417080606331     
 -7.335200949036422E-003  7.926408712437152E-005 -0.139368979548922     
 -7.212718955468682E-003  8.191017301140571E-005 -0.142181080029979     
 -7.085270582945484E-003  8.958606164826399E-005 -0.141844669511842     
 -6.966706872018082E-003  1.120528466715117E-004 -0.138710317010040     
 -6.895371380817119E-003  1.437589132860190E-004 -0.133850706373109     
 -6.608487497994316E-003  5.773699878986035E-005 -0.138027329805296     
 -6.579124435499207E-003  1.136688809616899E-006 -0.140477164349437     
 -6.608446781469351E-003 -5.547018256427637E-005 -0.138027263270121     
 -6.895385693257873E-003 -1.415161181788757E-004 -0.133850455953963     
 -6.966783287013195E-003 -1.098472926748724E-004 -0.138709936497124     
 -7.085400323371202E-003 -8.744710512190644E-005 -0.141844145753850     
 -7.212892493925885E-003 -7.986225204871629E-005 -0.142180408216678     
 -7.335408759088037E-003 -7.732671051214245E-005 -0.139368161099531     
 -7.447751164963871E-003 -6.371597005947351E-005 -0.133416122903208     
 -7.558587155368342E-003 -7.231349141840288E-006 -0.124661478167748     
 -7.733239457156127E-003  1.385974043742814E-004 -0.113776725157923     
 -8.200867945806038E-003  3.414490062215138E-004 -0.102216395401011     
 -6.500663870737841E-003  9.265139510430870E-005 -0.137780151342111     
 -6.179140665064902E-003  1.264764962889769E-004 -0.146834879318171     
 -5.904923522191759E-003  1.504255309788334E-004 -0.154077493311161     
 -5.641000996671379E-003  1.596333092411432E-004 -0.158296321118524     
 -5.377323248166364E-003  1.615911977487015E-004 -0.159034410515341     
 -5.113007236298843E-003  1.600865461007406E-004 -0.156199782893454     
 -4.847839347446686E-003  1.540779364314992E-004 -0.150042153645127     
 -4.575948149134296E-003  1.397925985132068E-004 -0.141176841681402     
 -4.275452103565799E-003  1.207125898748664E-004 -0.130998852440711     
 -4.104162503570524E-003  6.968889334816286E-005 -0.130881434517555     
 -4.121314821986506E-003 -5.191056956104660E-007 -0.133398947201827     
 -4.103379618572872E-003 -7.074461911585313E-005 -0.130881492101192     
 -4.274138358484302E-003 -1.211333389544868E-004 -0.130998824707413     
 -4.574809800769830E-003 -1.396129995421932E-004 -0.141176745808825     
 -4.846869890855441E-003 -1.533862149071707E-004 -0.150042034658126     
 -5.112196958163245E-003 -1.589653846308385E-004 -0.156199669668790     
 -5.376662427288007E-003 -1.601177286688070E-004 -0.159034318512496     
 -5.640479946776399E-003 -1.578798372819225E-004 -0.158296255042705     
 -5.904532558514020E-003 -1.484595235568109E-004 -0.154077447759927     
 -6.178870107001875E-003 -1.243604212912564E-004 -0.146834838418743     
 -6.500504793338965E-003 -9.044271325970308E-005 -0.137780086965858     
 -3.826550233720583E-003  1.505161896418181E-004 -0.127049649386457     
 -3.676082840872949E-003  1.292977699015863E-004 -0.132563563456509     
 -3.497365917203754E-003  1.142191903951752E-004 -0.136566660293774     
 -3.312593731231400E-003  1.080189010579251E-004 -0.137752535315345     
 -3.127697257911206E-003  1.060936537857096E-004 -0.135526816141651     
 -2.943143539695368E-003  1.062547469027835E-004 -0.129654704498606     
 -2.759147882654837E-003  1.093754455938899E-004 -0.120252310798275     
 -2.579845030372216E-003  1.180159053910232E-004 -0.107817701748393     
 -2.420336037283358E-003  1.296675759441610E-004 -9.365377819110066E-002
 -2.169930291915551E-003  5.296716430183961E-005 -8.908657657893790E-002
 -2.156627242547237E-003 -8.017843575953423E-006 -9.148900499860164E-002
 -2.167552392809063E-003 -6.903086301645591E-005 -8.908840404323908E-002
 -2.415971212209348E-003 -1.435586335926114E-004 -9.365742979531001E-002
 -2.575835646049682E-003 -1.298279566763177E-004 -0.107821080292045     
 -2.755485257982317E-003 -1.192847036979151E-004 -0.120255326444261     
 -2.939818066963789E-003 -1.144323659472821E-004 -0.129657286376050     
 -3.124699298052872E-003 -1.127058032350214E-004 -0.135528924428273     
 -3.309913645724532E-003 -1.132269292209327E-004 -0.137754158186974     
 -3.494994033021919E-003 -1.181796432564178E-004 -0.136567811092226     
 -3.674009491275965E-003 -1.321616658057385E-004 -0.132564281462384     
 -3.824768958665835E-003 -1.524290309789300E-004 -0.127050000799578     
 -1.995835558242549E-003  1.062129880448868E-004 -8.023489042132717E-002
 -1.732815290836186E-003  1.194561741442425E-004 -7.986297135121520E-002
 -1.489228474196963E-003  1.281022302438116E-004 -7.790506369335638E-002
 -1.249661147446444E-003  1.303996725378839E-004 -7.349146825749361E-002
 -1.009955611877113E-003  1.298171290530866E-004 -6.642821400576045E-002
 -7.699006890868235E-004  1.284823486171980E-004 -5.690122220971702E-002
 -5.304917890246182E-004  1.269055851886886E-004 -4.548404831534296E-002
 -2.932163591635044E-004  1.229805290483895E-004 -3.313997701285463E-002
 -5.818266327011095E-005  1.135869201932628E-004 -2.160099525543146E-002
  1.916182718463490E-004  2.605825866947497E-005 -2.195091904524330E-002
  1.945365512180066E-004 -2.501582808892573E-005 -2.455024227286252E-002
  1.962594121279455E-004 -7.610957973785135E-005 -2.195014884262147E-002
 -4.960723063459161E-005 -1.593867088241598E-004 -2.160201067710266E-002
 -2.850820713854352E-004 -1.645984438304366E-004 -3.314130366776750E-002
 -5.228097700797592E-004 -1.645789498685973E-004 -4.548594377032953E-002
 -7.626642027323729E-004 -1.624385605353496E-004 -5.690357280632100E-002
 -1.003156461775991E-003 -1.602771684138094E-004 -6.643093001049129E-002
 -1.243291345770764E-003 -1.575801605024431E-004 -7.349449980338157E-002
 -1.483280072383322E-003 -1.522158627064658E-004 -7.790836200889394E-002
 -1.727280316895728E-003 -1.407114612390310E-004 -7.986648014675557E-002
 -1.990706907632343E-003 -1.248143268368783E-004 -8.023855627381184E-002
  4.331703652873406E-004  1.079256000890129E-004 -2.160047249104529E-002
  6.731337765370452E-004  1.139308747957264E-004 -3.316057492947688E-002
  9.134541365559959E-004  1.140247663791711E-004 -4.553161076255009E-002
  1.155518164271519E-003  1.111281841535485E-004 -5.697886422548424E-002
  1.398265535742006E-003  1.076649843780198E-004 -6.653839035378836E-002
  1.640753889935452E-003  1.033387518079059E-004 -7.363605687478807E-002
  1.883169483074885E-003  9.611144714730704E-005 -7.808500033306352E-002
  2.129651271554099E-003  8.254566720191060E-005 -8.007803308836929E-002
  2.395614414782234E-003  6.441053457990325E-005 -8.048317207623534E-002
  2.577402359720371E-003  5.456655209140453E-006 -8.935978368036626E-002
  2.568838437687251E-003 -5.638910404839100E-005 -9.176238842229954E-002
  2.584517080231138E-003 -1.182465160410114E-004 -8.936338017952121E-002
  2.409730834199964E-003 -1.700122241291675E-004 -8.049000277731040E-002
  2.143499815395705E-003 -1.810386908203179E-004 -8.008402126369317E-002
  1.896676581493860E-003 -1.876482986240632E-004 -7.808993515911578E-002
  1.653846180173994E-003 -1.881085251081442E-004 -7.363981383681821E-002
  1.410869665653596E-003 -1.858934437054354E-004 -6.654094037511291E-002
  1.167560835769569E-003 -1.830777152878049E-004 -5.698027734356715E-002
  9.248622225286374E-004 -1.799949237054648E-004 -4.553203682794748E-002
  6.838355373391403E-004 -1.742530055520537E-004 -3.316026362595718E-002
  4.430790082445847E-004 -1.629664570968974E-004 -2.160015962222491E-002
  2.826015171181879E-003  7.825758374988680E-005 -9.394970402031530E-002
  2.988481665112649E-003  6.187979392439078E-005 -0.108137513363227     
  3.170789788637251E-003  4.859582932181287E-005 -0.120595930741316     
  3.357838348447681E-003  4.093148035754146E-005 -0.130022069128205     
  3.545514068295059E-003  3.635958810085465E-005 -0.135918377574265     
  3.733629759778201E-003  3.410566999344353E-005 -0.138169406618155     
  3.921658789213526E-003  3.659664716771419E-005 -0.137010604143012     
  4.103189939974744E-003  4.879198538293361E-005 -0.133036859234889     
  4.254341531741428E-003  6.772825795188563E-005 -0.127554698304405     
  4.545849327529087E-003 -1.972061724494912E-005 -0.131422588398539     
  4.567850139806232E-003 -9.175901770918721E-005 -0.133943091682841     
  4.552075633302586E-003 -1.637727428165755E-004 -0.131427336857037     
  4.267089909553014E-003 -2.447971745340334E-004 -0.127563838947404     
  4.116426774522115E-003 -2.192281409912969E-004 -0.133045866850892     
  3.935289671941048E-003 -2.001930633090386E-004 -0.137019400416226     
  3.747580582256811E-003 -1.906880491201555E-004 -0.138177975859238     
  3.559710788594922E-003 -1.857863038669741E-004 -0.135926711875520     
  3.372206689006302E-003 -1.830981328556814E-004 -0.130030164047480     
  3.185255408723754E-003 -1.834351842072582E-004 -0.120603789278380     
  3.002970242703079E-003 -1.893617481763309E-004 -0.108145140022654     
  2.840452211937463E-003 -1.983891905399212E-004 -9.395709947159547E-002
  4.715868467395043E-003  2.856659092727876E-005 -0.131574432880707     
  5.028305425159885E-003  4.578196915658577E-005 -0.141799654181583     
  5.310008038859368E-003  5.788011595421893E-005 -0.150716455160344     
  5.584544798438935E-003  6.115458806634308E-005 -0.156928330142224     
  5.858266015587170E-003  5.973384877184169E-005 -0.159818902367466     
  6.131443298215446E-003  5.489338811952300E-005 -0.159137427981015     
  6.404934683338684E-003  4.293303538403682E-005 -0.154974903131339     
  6.688794099419094E-003  1.637612524796131E-005 -0.147787261869180     
  7.020124276682262E-003 -1.988208636928231E-005 -0.138784499401126     
  7.139180534106913E-003 -5.967278599100252E-005 -0.139075322642228     
  7.111691123266246E-003 -1.190209205950356E-004 -0.141527087427613     
  7.143044839839396E-003 -1.783099145927685E-004 -0.139079747501354     
  7.028703845096644E-003 -2.137050774826337E-004 -0.138792529547138     
  6.698081590668932E-003 -2.453749707363830E-004 -0.147795090626738     
  6.414853634996983E-003 -2.670092681349467E-004 -0.154982737250746     
  6.141918203507750E-003 -2.737503858357572E-004 -0.159145431115021     
  5.869221303681406E-003 -2.731125165282752E-004 -0.159827168930735     
  5.595904952786035E-003 -2.688336332680150E-004 -0.156936901710533     
  5.321697775146754E-003 -2.596761049644592E-004 -0.150725332654113     
  5.040249436335574E-003 -2.415447242002329E-004 -0.141808797694343     
  4.727971189161756E-003 -2.181793074260209E-004 -0.131583711656656     
  7.433839344386166E-003  2.733583943037093E-005 -0.134936567281736     
  7.514371629490490E-003 -6.130473211823317E-006 -0.139839006230734     
  7.642296424345246E-003 -3.008973540445278E-005 -0.143015095001046     
  7.779182911698877E-003 -3.896069416641784E-005 -0.143391052580940     
  7.911185111892802E-003 -4.248272645449933E-005 -0.140615900115360     
  8.033141047576974E-003 -5.665659983328463E-005 -0.134697942261143     
  8.153637007192039E-003 -1.129564404470653E-004 -0.125973751220471     
  8.337330091677435E-003 -2.573592181143947E-004 -0.115115196124818     
  8.811032348227870E-003 -4.578569416051638E-004 -0.103576565789585     
  7.970738402277740E-003 -2.125996560457749E-004 -0.103758410279961     
  7.790629156251669E-003 -1.262134795088904E-004 -0.106544197832654     
  7.968999271199253E-003 -3.973300494586301E-005 -0.103774963572905     
  8.808745686844002E-003  2.043974143165746E-004 -0.103607338963787     
  8.336471149492831E-003  3.248037641914290E-006 -0.115143847642169     
  8.154111353615393E-003 -1.411315183391464E-004 -0.125999744641687     
  8.034876955874454E-003 -1.967640782509550E-004 -0.134721056098068     
  7.914111010881787E-003 -2.096576199858994E-004 -0.140636041163976     
  7.783226968837866E-003 -2.113222615437194E-004 -0.143408242446524     
  7.647386747476010E-003 -2.177946965949601E-004 -0.143029490413351     
  7.520436261394877E-003 -2.388501023649999E-004 -0.139850910890856     
  7.440805245302568E-003 -2.689428475450692E-004 -0.134946396425687     
  8.226152978219953E-003 -1.440174777620655E-004 -0.100157009510858     
  7.168600571657272E-003 -3.446675967498184E-004 -0.106921649442343     
  6.400862155128167E-003 -4.880442262739307E-004 -0.111679711315892     
  5.696232099994999E-003 -5.427491049655855E-004 -0.112510608663867     
  4.991000341637006E-003 -5.551409862698481E-004 -0.108194597627422     
  4.278688226952184E-003 -5.553366805550254E-004 -9.789464000008372E-002
  3.567153596815423E-003 -5.528289023314914E-004 -8.132168667083983E-002
  2.866512177200966E-003 -5.381109744610412E-004 -5.890043527236302E-002
  2.176865823464442E-003 -4.824971692317881E-004 -3.182777454534057E-002
  1.418347609098183E-003 -1.657676582740066E-004 -2.153522361525485E-003
  1.410094633089762E-003 -1.025090500783809E-004 -2.173249404492542E-003
  1.409819097581099E-003 -3.919376670665760E-005 -2.170449558430490E-003
  2.161529581896486E-003  2.699388506382525E-004 -3.186168048464491E-002
  2.852767054228715E-003  3.184021572531819E-004 -5.893452776532068E-002
  3.554929333720734E-003  3.267517023221856E-004 -8.135593413968610E-002
  4.267909308976682E-003  3.236326335635774E-004 -9.792901278328651E-002
  4.981588802265327E-003  3.185138906628881E-004 -0.108229039301367     
  5.688110072212039E-003  3.018631158674246E-004 -0.112545032450078     
  6.393952038464579E-003  2.435244824305553E-004 -0.111714003950417     
  7.162824830329143E-003  9.710538944956750E-005 -0.106955645435780     
  8.221411579822048E-003 -1.060300699646047E-004 -0.100190293233070     
 -7.588105304723676E-003  2.592200716593096E-005 -9.876828398773614E-002
 -6.508726141214369E-003  2.298321554351776E-004 -0.105533265033907     
 -5.722102568366801E-003  3.761759525147457E-004 -0.110298572610945     
 -4.999178934176295E-003  4.333051206985820E-004 -0.111142687514219     
 -4.275667829113027E-003  4.482041454117143E-004 -0.106845063901371     
 -3.545417479599945E-003  4.514080358880897E-004 -9.656778185769707E-002
 -2.817431809084873E-003  4.520159610406973E-004 -8.002136202689285E-002
 -2.103611056642546E-003  4.368813097145163E-004 -5.763146593959047E-002
 -1.403117996376232E-003  3.710888740068137E-004 -3.059849316638279E-002
 -6.226927483749685E-004  2.957730461642580E-005 -9.327647743947282E-004
 -6.202465120292178E-004  1.684255368568003E-008 -9.361636908293112E-004
 -6.226815583335168E-004 -2.954208320055453E-005 -9.327637274861497E-004
 -1.403025357625293E-003 -3.709941751546156E-004 -3.059865570163902E-002
 -2.103464565516991E-003 -4.367117513437068E-004 -5.763178755799599E-002
 -2.817240746975588E-003 -4.517467403284029E-004 -8.002184047882280E-002
 -3.545191268325694E-003 -4.510192594429648E-004 -9.656841287962729E-002
 -4.275416025473495E-003 -4.476805921250164E-004 -0.106845841306595     
 -4.998911088540035E-003 -4.326363865174925E-004 -0.111143602337453     
 -5.721828210766887E-003 -3.753564137881602E-004 -0.110299612384550     
 -6.508454804358276E-003 -2.288605720902415E-004 -0.105534411723371     
 -7.587848290895734E-003 -2.480152909936708E-005 -9.876950521460780E-002
 -7.750031963516537E-003  3.404249812955702E-004 -0.106715444208856     
 -7.413833163064117E-003  6.979307949319266E-007 -0.108702540347372     
 -7.749910440006742E-003 -3.390318641214942E-004 -0.106716071779091     
 -7.717219235021141E-003  1.399223895979997E-004 -0.115034472698181     
 -7.628940812768054E-003  7.683488599003971E-007 -0.115621021285441     
 -7.717097937006471E-003 -1.383859254387462E-004 -0.115035064151249     
 -7.605947332780547E-003  1.458157449470811E-005 -0.124573833412837     
 -7.603335736226584E-003  8.399515404111964E-007 -0.124526737019611     
 -7.605828942821759E-003 -1.290246192771340E-005 -0.124574374712986     
 -7.477264749554431E-003 -3.041131498350220E-005 -0.133041299196040     
 -7.487990842432989E-003  9.090311322705910E-007 -0.132889916813498     
 -7.477153944455757E-003  3.222788976318815E-005 -0.133041778184865     
 -7.347640799592586E-003 -3.974144594643113E-005 -0.138993005771837     
 -7.354957869642828E-003  9.731140411892067E-007 -0.138846238124095     
 -7.347542365664052E-003  4.168546054612259E-005 -0.138993415007851     
 -7.219785021176848E-003 -4.074616417789145E-005 -0.141801189433891     
 -7.223673634761709E-003  1.029811708214862E-006 -0.141651049232915     
 -7.219703719479498E-003  4.280286595662548E-005 -0.141801525316960     
 -7.092749579206743E-003 -4.652348499838999E-005 -0.141682724719732     
 -7.092648768466595E-003  1.076753555636153E-006 -0.141608608777193     
 -7.092690155067260E-003  4.867334935622984E-005 -0.141682986772007     
 -6.963245372648513E-003 -6.586995716596434E-005 -0.139668167108472     
 -6.948657587229168E-003  1.111598708584889E-006 -0.140118532744671     
 -6.963212615146282E-003  6.808873811303855E-005 -0.139668357527763     
 -6.821017086051363E-003 -9.703607437720448E-005 -0.137617826862514     
 -6.766648822031508E-003  1.132543920573663E-006 -0.139329633843794     
 -6.821016628355697E-003  9.929463604189080E-005 -0.137617949608692     
 -6.429097061661876E-003 -1.657776298545220E-005 -0.141721893338563     
 -6.374623898509515E-003  1.119220548718666E-006 -0.143485355705634     
 -6.429183424534257E-003  1.880968593347739E-005 -0.141721927005674     
 -6.177110658863327E-003 -5.033756189427741E-005 -0.147870699189766     
 -6.163235142460804E-003  1.075258261268158E-006 -0.148363781600307     
 -6.177251487364270E-003  5.247948290106017E-005 -0.147870719706872     
 -5.912546354711294E-003 -7.095110381625451E-005 -0.153927135273553     
 -5.912326221550808E-003  1.001798445606086E-006 -0.153858393842736     
 -5.912747374158800E-003  7.294530763500041E-005 -0.153927157907273     
 -5.645146539242760E-003 -7.849881405599562E-005 -0.157900257350385     