# vtk DataFile Version 3.0
 Cables to test STAP90 for 4Q element                                            
ASCII
DATASET UNSTRUCTURED_GRID
 POINTS          25 double
   0.0000000000000000        0.0000000000000000        0.0000000000000000     
  0.50000000000000000       0.12500000000000000        0.0000000000000000     
   1.0000000000000000       0.25000000000000000        0.0000000000000000     
   1.5000000000000000       0.37500000000000000        0.0000000000000000     
   2.0000000000000000       0.50000000000000000        0.0000000000000000     
   0.0000000000000000       0.25000000000000000        0.0000000000000000     
  0.50000000000000000       0.34375000000000000        0.0000000000000000     
   1.0000000000000000       0.43750000000000000        0.0000000000000000     
   1.5000000000000000       0.53125000000000000        0.0000000000000000     
   2.0000000000000000       0.62500000000000000        0.0000000000000000     
   0.0000000000000000       0.50000000000000000        0.0000000000000000     
  0.50000000000000000       0.56250000000000000        0.0000000000000000     
   1.0000000000000000       0.62500000000000000        0.0000000000000000     
   1.5000000000000000       0.68750000000000000        0.0000000000000000     
   2.0000000000000000       0.75000000000000000        0.0000000000000000     
   0.0000000000000000       0.75000000000000000        0.0000000000000000     
  0.50000000000000000       0.78125000000000000        0.0000000000000000     
   1.0000000000000000       0.81250000000000000        0.0000000000000000     
   1.5000000000000000       0.84375000000000000        0.0000000000000000     
   2.0000000000000000       0.87500000000000000        0.0000000000000000     
   0.0000000000000000        1.0000000000000000        0.0000000000000000     
  0.50000000000000000        1.0000000000000000        0.0000000000000000     
   1.0000000000000000        1.0000000000000000        0.0000000000000000     
   1.5000000000000000        1.0000000000000000        0.0000000000000000     
   2.0000000000000000        1.0000000000000000        0.0000000000000000     
 CELLS           16          80
           4           0           1           6           5
           4           1           2           7           6
           4           2           3           8           7
           4           3           4           9           8
           4           5           6          11          10
           4           6           7          12          11
           4           7           8          13          12
           4           8           9          14          13
           4          10          11          16          15
           4          11          12          17          16
           4          12          13          18          17
           4          13          14          19          18
           4          15          16          21          20
           4          16          17          22          21
           4          17          18          23          22
           4          18          19          24          23
 CELL_TYPES           16
           9           9           9           9           9           9           9           9           9           9           9           9           9           9           9           9
 CELL_DATA          16
 POINT_DATA          25
 FIELD Result            2
 Displacement_Load_Case01            3          25 double
   0.0000000000000000        0.0000000000000000        0.0000000000000000     
  -2.4862690444193044E-006  -3.2721793414062498E-006   0.0000000000000000     
  -3.5430965129630791E-006  -8.9985450122059752E-006   0.0000000000000000     
  -2.9632823655691794E-006  -1.6659765874623474E-005   0.0000000000000000     
  -1.2738717938506018E-006  -2.4849588905961874E-005   0.0000000000000000     
   0.0000000000000000        0.0000000000000000        0.0000000000000000     
  -1.1861061743376889E-006  -3.0334674263852425E-006   0.0000000000000000     
  -1.3785660229941956E-006  -8.9382980919229292E-006   0.0000000000000000     
  -5.9730033460062103E-007  -1.6646127637984400E-005   0.0000000000000000     
   7.4929200710100623E-007  -2.4855693582763392E-005   0.0000000000000000     
   0.0000000000000000        0.0000000000000000        0.0000000000000000     
   8.7016413926653481E-008  -3.0114950017073660E-006   0.0000000000000000     
   7.5992314342938928E-007  -9.0041647314085733E-006   0.0000000000000000     
   1.7146141778673386E-006  -1.6694486106660712E-005   0.0000000000000000     
   2.7536767668466181E-006  -2.4889670089931725E-005   0.0000000000000000     
   0.0000000000000000        0.0000000000000000        0.0000000000000000     
   1.4935516697420173E-006  -3.2008231457835901E-006   0.0000000000000000     
   3.0037099240821513E-006  -9.1779944249319583E-006   0.0000000000000000     
   4.0434639523309968E-006  -1.6788088118296350E-005   0.0000000000000000     
   4.7664190544216425E-006  -2.4955314639524379E-005   0.0000000000000000     
   0.0000000000000000        0.0000000000000000        0.0000000000000000     
   3.3950422210327635E-006  -3.6760965891668681E-006   0.0000000000000000     
   5.4218516520266266E-006  -9.4054598836395491E-006   0.0000000000000000     
   6.4699007045490651E-006  -1.6924104913222901E-005   0.0000000000000000     
   6.8003729966110428E-006  -2.5037670940162509E-005   0.0000000000000000     
 Stress_Load_Case01            3          25 double
  -169.09704669644771       -51.409124211961512       -77.253984200497229     
  -157.72591318951913       -28.606656227936867       -39.794866848765849     
  -101.44050760812445       -16.369967585852550       -29.817269631018803     
  -43.508652977821953       -9.5171209419287379       -16.736580358819310     
  -20.977257800773202       -7.5895533318075223       -2.6652660358234925     
  -78.016410862270959       -23.776224395344386       -72.632725202319250     
  -75.992167600943048       -7.9232896105777986       -38.326418162427643     
  -49.418132535037927       -13.699595897999714       -28.100745208331801     
  -21.731107983107464       -9.6633377593714229       -13.779799239500761     
  -11.569903538816263       -8.2196966173321755       -3.6108178355162011     
   8.5327890836803704        2.7982068892323326       -72.190893528150809     
  -2.6935923988092725       -11.742024267399557       -34.953244138800017     
  0.58230315705054636       -17.872259893104911       -25.737160308751072     
  0.63581237223962717       -13.878491051427886       -13.917563392827446     
  -1.5692616450744268       -12.494465606437302       -3.6840966708903693     
   107.24600663314550        33.120415526978022       -77.344896999870173     
   71.396575948837892       -18.868057708901006       -22.009334813300640     
   47.370019291642620       -18.502157603378521       -15.580041684418461     
   19.333050433468173       -16.960759236193155       -8.3490030513181779     
   7.3228837498710533       -15.740232911090686       -1.6119549237714210     
   233.01258895935462        71.257671363318423       -87.678953494436428     
   166.09745147725039        8.4959596896023299       -23.184855081041007     
   87.972504534054906       -15.155336561279853       -9.6235746075804514     
   36.837095301785979       -16.320729706369065       -7.2531413878227013     
   14.403356638750097       -15.706889974446881        8.1295464001044593E-002
